                  Welcome to Q-Chem
     A Quantum Leap Into The Future Of Chemistry


 Q-Chem 5.2 (devel), Q-Chem, Inc., Pleasanton, CA (2019)

 Yihan Shao,  Zhengting Gan,  E. Epifanovsky,  A. T. B. Gilbert,  M. Wormit,  
 J. Kussmann,  A. W. Lange,  A. Behn,  Jia Deng,  Xintian Feng,  D. Ghosh,  
 M. Goldey,  P. R. Horn,  L. D. Jacobson,  I. Kaliman,  T. Kus,  A. Landau,  
 Jie Liu,  E. I. Proynov,  R. M. Richard,  R. P. Steele,  E. J. Sundstrom,  
 H. L. Woodcock III,  P. M. Zimmerman,  D. Zuev,  B. Albrecht,  E. Alguire,  
 S. A. Baeppler,  D. Barton,  Z. Benda,  Y. A. Bernard,  E. J. Berquist,  
 K. B. Bravaya,  H. Burton,  D. Casanova,  Chun-Min Chang,  Yunqing Chen,  
 A. Chien,  K. D. Closser,  M. P. Coons,  S. Coriani,  S. Dasgupta,  
 A. L. Dempwolff,  M. Diedenhofen,  Hainam Do,  R. G. Edgar,  Po-Tung Fang,  
 S. Faraji,  S. Fatehi,  Qingguo Feng,  K. D. Fenk,  J. Fosso-Tande,  
 J. Gayvert,  Qinghui Ge,  A. Ghysels,  G. Gidofalvi,  J. Gomes,  
 J. Gonthier,  A. Gunina,  D. Hait,  M. W. D. Hanson-Heine,  
 P. H. P. Harbach,  A. W. Hauser,  M. F. Herbst,  J. E. Herr,  
 E. G. Hohenstein,  Z. C. Holden,  Kerwin Hui,  B. C. Huynh,  T.-C. Jagau,  
 Hyunjun Ji,  B. Kaduk,  K. Khistyaev,  Jaehoon Kim,  P. Klunzinger,  K. Koh,  
 D. Kosenkov,  L. Koulias,  T. Kowalczyk,  C. M. Krauter,  A. Kunitsa,  
 Ka Un Lao,  A. Laurent,  K. V. Lawler,  Joonho Lee,  D. Lefrancois,  
 S. Lehtola,  D. S. Levine,  Yi-Pei Li,  You-Sheng Lin,  Fenglai Liu,  
 E. Livshits,  A. Luenser,  P. Manohar,  E. Mansoor,  S. F. Manzer,  
 Shan-Ping Mao,  Yuezhi Mao,  N. Mardirossian,  A. V. Marenich,  
 T. Markovich,  L. A. Martinez-Martinez,  S. A. Maurer,  N. J. Mayhall,  
 S. C. McKenzie,  J.-M. Mewes,  P. Morgante,  A. F. Morrison,  
 J. W. Mullinax,  K. Nanda,  T. S. Nguyen-Beck,  R. Olivares-Amaya,  
 J. A. Parkhill,  Zheng Pei,  T. M. Perrine,  F. Plasser,  P. Pokhilko,  
 S. Prager,  A. Prociuk,  E. Ramos,  D. R. Rehn,  F. Rob,  M. Scheurer,  
 M. Schneider,  N. Sergueev,  S. M. Sharada,  S. Sharma,  D. W. Small,  
 T. Stauch,  T. Stein,  Yu-Chuan Su,  A. J. W. Thom,  A. Tkatchenko,  
 T. Tsuchimochi,  N. M. Tubman,  L. Vogt,  M. L. Vidal,  O. Vydrov,  
 M. A. Watson,  J. Wenzel,  M. de Wergifosse,  T. A. Wesolowski,  A. White,  
 J. Witte,  A. Yamada,  Jun Yang,  K. Yao,  S. Yeganeh,  S. R. Yost,  
 Zhi-Qiang You,  A. Zech,  Igor Ying Zhang,  Xing Zhang,  Yan Zhao,  
 Ying Zhu,  B. R. Brooks,  G. K. L. Chan,  C. J. Cramer,  M. S. Gordon,  
 W. J. Hehre,  A. Klamt,  M. W. Schmidt,  C. D. Sherrill,  D. G. Truhlar,  
 A. Aspuru-Guzik,  R. Baer,  A. T. Bell,  N. A. Besley,  Jeng-Da Chai,  
 A. E. DePrince, III,  R. A. DiStasio Jr.,  A. Dreuw,  B. D. Dunietz,  
 T. R. Furlani,  Chao-Ping Hsu,  Yousung Jung,  Jing Kong,  D. S. Lambrecht,  
 WanZhen Liang,  C. Ochsenfeld,  V. A. Rassolov,  L. V. Slipchenko,  
 J. E. Subotnik,  T. Van Voorhis,  J. M. Herbert,  A. I. Krylov,  
 P. M. W. Gill,  M. Head-Gordon

 Contributors to earlier versions of Q-Chem not listed above: 
 R. D. Adamson,  B. Austin,  J. Baker,  G. J. O. Beran,  K. Brandhorst,  
 S. T. Brown,  E. F. C. Byrd,  A. K. Chakraborty,  C.-L. Cheng,  
 Siu Hung Chien,  D. M. Chipman,  D. L. Crittenden,  H. Dachsel,  
 R. J. Doerksen,  A. D. Dutoi,  L. Fusti-Molnar,  W. A. Goddard III,  
 A. Golubeva-Zadorozhnaya,  S. R. Gwaltney,  G. Hawkins,  A. Heyden,  
 S. Hirata,  G. Kedziora,  F. J. Keil,  C. Kelley,  Jihan Kim,  R. A. King,  
 R. Z. Khaliullin,  P. P. Korambath,  W. Kurlancheek,  A. M. Lee,  M. S. Lee,  
 S. V. Levchenko,  Ching Yeh Lin,  D. Liotard,  R. C. Lochan,  I. Lotan,  
 P. E. Maslen,  N. Nair,  D. P. O'Neill,  D. Neuhauser,  E. Neuscamman,  
 C. M. Oana,  R. Olson,  B. Peters,  R. Peverati,  P. A. Pieniazek,  
 Y. M. Rhee,  J. Ritchie,  M. A. Rohrdanz,  E. Rosta,  N. J. Russ,  
 H. F. Schaefer III,  N. E. Schultz,  N. Shenvi,  A. C. Simmonett,  A. Sodt,  
 D. Stuck,  K. S. Thanthiriwatte,  V. Vanovschi,  Tao Wang,  A. Warshel,  
 C. F. Williams,  Q. Wu,  X. Xu,  W. Zhang

 Please cite Q-Chem as follows:
 Y. Shao et al., Mol. Phys. 113, 184-215 (2015)
 DOI: 10.1080/00268976.2014.952696

 Q-Chem 5.2.0 for Intel X86 EM64T Linux

 Parts of Q-Chem use Armadillo 8.300.2 (Tropical Shenanigans).
 http://arma.sourceforge.net/

 Q-Chem begins on Wed Nov  3 10:23:22 2021  

Host: 
0

     Scratch files written to /lscratch/ccprak10/adc2_631pGs_393009.Meister/qchem6689//
NAlpha2: 42
NElect   42
Mult     1

Checking the input file for inconsistencies... 	...done.

--------------------------------------------------------------
User input:
--------------------------------------------------------------
$molecule
	0 1
	C    -1.1323119    0.7070367    0.0000000 
	C    -1.1382271   -0.6974793    0.0000000 
	N    -0.0060276   -1.4310380    0.0000000 
	C     1.1322998   -0.7070499    0.0000000 
	C     1.1382132    0.6974788    0.0000000 
	N     0.0060267    1.4310301    0.0000000 
	H    -2.0739153    1.2686307    0.0000000 
	H    -2.0845207   -1.2511217    0.0000000 
	H     2.0739369   -1.2685931    0.0000000 
	H     2.0845260    1.2511057    0.0000000 
$end

$rem
	method adc(2)
	basis GEN
	PURECART 2
	ee_singlets 40
	cc_symmetry false
	mem_total 100000
	threads 8
	!QSYS wt=12:00:00
	!QSYS mem=115gb
	!QSYS vmem=115gb
$end

$basis
!631++G** from BSE
H     0
S   3   1.00
      0.1873113696D+02       0.3349460434D-01
      0.2825394365D+01       0.2347269535D+00
      0.6401216923D+00       0.8137573261D+00
S   1   1.00
      0.1612777588D+00       1.0000000
****
C     0
S   6   1.00
      0.3047524880D+04       0.1834737132D-02
      0.4573695180D+03       0.1403732281D-01
      0.1039486850D+03       0.6884262226D-01
      0.2921015530D+02       0.2321844432D+00
      0.9286662960D+01       0.4679413484D+00
      0.3163926960D+01       0.3623119853D+00
SP   3   1.00
      0.7868272350D+01      -0.1193324198D+00       0.6899906659D-01
      0.1881288540D+01      -0.1608541517D+00       0.3164239610D+00
      0.5442492580D+00       0.1143456438D+01       0.7443082909D+00
SP   1   1.00
      0.1687144782D+00       0.1000000000D+01       0.1000000000D+01
SP   1   1.00
      0.4380000000D-01       0.1000000000D+01       0.1000000000D+01
D   1   1.00
      0.8000000000D+00       1.0000000
****
N     0
S   6   1.00
      0.4173511460D+04       0.1834772160D-02
      0.6274579110D+03       0.1399462700D-01
      0.1429020930D+03       0.6858655181D-01
      0.4023432930D+02       0.2322408730D+00
      0.1282021290D+02       0.4690699481D+00
      0.4390437010D+01       0.3604551991D+00
SP   3   1.00
      0.1162636186D+02      -0.1149611817D+00       0.6757974388D-01
      0.2716279807D+01      -0.1691174786D+00       0.3239072959D+00
      0.7722183966D+00       0.1145851947D+01       0.7408951398D+00
SP   1   1.00
      0.2120314975D+00       0.1000000000D+01       0.1000000000D+01
SP   1   1.00
      0.6390000000D-01       0.1000000000D+01       0.1000000000D+01
D   1   1.00
      0.8000000000D+00       1.0000000
****
$end
--------------------------------------------------------------
 ----------------------------------------------------------------
             Standard Nuclear Orientation (Angstroms)
    I     Atom           X                Y                Z
 ----------------------------------------------------------------
    1      C       1.1352764551    -0.7022642708    -0.0000000000
    2      C       1.1352762355     0.7022641852     0.0000000000
    3      N      -0.0000027348     1.4310479211     0.0000000000
    4      C      -1.1352708351     0.7022719755     0.0000000000
    5      C      -1.1352687621    -0.7022691729    -0.0000000000
    6      N      -0.0000028228    -1.4310455636    -0.0000000000
    7      H       2.0792367561    -1.2598875610    -0.0000000000
    8      H       2.0792296800     1.2598871575     0.0000000000
    9      H      -2.0792646219     1.2598443242     0.0000000000
   10      H      -2.0792414717    -1.2598767261    -0.0000000000
 ----------------------------------------------------------------
 Molecular Point Group                 Cs    NOp =  2
 Largest Abelian Subgroup              Cs    NOp =  2
 Nuclear Repulsion Energy =         206.95834604 hartrees
 There are       21 alpha and       21 beta electrons
 Requested basis set is non-standard
 There are 38 shells and 122 basis functions

 Total QAlloc Memory Limit 100000 MB
 Mega-Array Size       188 MB
 MEM_STATIC part       192 MB

                       Distance Matrix (Angstroms)
             C (  1)   C (  2)   N (  3)   C (  4)   C (  5)   N (  6)
   C (  2)  1.404528
   N (  3)  2.416584  1.349068
   C (  4)  2.669852  2.270547  1.349054
   C (  5)  2.270545  2.669848  2.416582  1.404541
   N (  6)  1.349067  2.416582  2.862093  2.416584  1.349053
   H (  7)  1.096360  2.177407  3.400643  3.766050  3.262512  2.086272
   H (  8)  2.177403  1.096354  2.086265  3.262506  3.766040  3.400636
   H (  9)  3.766052  3.262540  2.086298  1.096363  2.177388  3.400620
   H ( 10)  3.262523  3.766048  3.400634  2.177409  1.096362  2.086272
             H (  7)   H (  8)   H (  9)
   H (  8)  2.519775
   H (  9)  4.862323  4.158494
   H ( 10)  4.158478  4.862313  2.519721
 
 A cutoff of  1.0D-11 yielded    726 shell pairs
 There are      7686 function pairs
 Smallest overlap matrix eigenvalue = 4.72E-05

 Scale SEOQF with 1.000000e-01/1.000000e-01/1.000000e-01

 Standard Electronic Orientation quadrupole field applied
 Nucleus-field energy     =     0.0000000051 hartrees
 Guess MOs from core Hamiltonian diagonalization
 A restricted Hartree-Fock SCF calculation will be
 performed using Pulay DIIS extrapolation
 SCF converges when DIIS error is below 1.0E-08
 using 8 threads for integral computing
 -------------------------------------------------------
 OpenMP Integral computing Module                
 Release: version 2.0, May 2017, Q-Chem Inc. Pleasanton 
 -------------------------------------------------------
 ---------------------------------------
  Cycle       Energy         DIIS Error
 ---------------------------------------
    1    -224.7176713434      1.12E-01
    2    -210.2549543723      8.06E-02
    3    -258.4464103078      4.46E-02
    4    -261.6450205433      2.15E-02
    5    -262.6273457187      4.37E-03
    6    -262.6824093518      6.78E-04
    7    -262.6839522703      3.78E-04
    8    -262.6842184382      8.54E-05
    9    -262.6842656030      2.60E-05
   10    -262.6842687532      4.53E-06
   11    -262.6842688287      1.12E-06
   12    -262.6842688318      3.71E-07
   13    -262.6842688324      8.08E-08
   14    -262.6842688325      1.41E-08
   15    -262.6842688318      1.72E-09 Convergence criterion met
 ---------------------------------------
 SCF time:  CPU 22.48 s  wall 5.62 s
 SCF   energy in the final basis set = -262.68426883
 Total energy in the final basis set = -262.68426883
================================================================================
|                                                                              |
|                                 A D C  M A N                                 |
|                                                                              |
 ------------------------------------------------------------------------------ 
|                                                                              |
| Components:                                                                  |
|                                                                              |
| - libvmm - 1.3-trunk                                                         |
|   Authors:                                                                   |
|   Evgeny Epifanovsky, Ilya Kaliman                                           |
|                                                                              |
| - libtensor - 2.5-trunk                                                      |
|   Authors:                                                                   |
|   Evgeny Epifanovsky, Michael Wormit, Dmitry Zuev, Sam Manzer,               |
|   Ilya Kaliman                                                               |
|                                                                              |
| - libwfa - 1.1-beta                                                          |
|   Authors:                                                                   |
|   Felix Plasser, Stefanie Baeppler, Benjamin Thomitzni, Michael Wormit       |
|                                                                              |
| - libadc - 1.1-trunk                                                         |
|   Authors:                                                                   |
|   Michael Wormit, Adrian L. Dempwolff, Philipp H. P. Harbach,                |
|   Caroline Krauter, Dirk Rehn, Matthias Schneider, Jan Wenzel                |
|                                                                              |
| - adcman - 2.6-trunk                                                         |
|   Authors:                                                                   |
|   Michael Wormit, Adrian L. Dempwolff, Philipp H. P. Harbach,                |
|   Caroline Krauter, Daniel Lefrancois, Jan-Michael Mewes, Dirk Rehn,         |
|   Matthias Schneider, Jan Wenzel, Andreas Dreuw                              |
|                                                                              |
| Authors of earlier versions of ADCMAN:                                       |
| Andreas Dreuw, Jan Hendrik Starcke, Dirk Rehn, Michael Wormit                |
|                                                                              |
================================================================================


--------------------------------------------------------------------------------
                                   HF Summary                                   
--------------------------------------------------------------------------------
  Energy:                                                 -262.6842688318 a.u.
  Dip. moment [a.u.]:                  [  -0.000019,   -0.000005,   -0.000000]
  Total dipole [Debye]:                                               0.000051
  <r^2> [a.u.]:                        [ 191.894049,  199.003691,   27.833417]
  Total <r^2> [a.u.]:                                               418.731158
--------------------------------------------------------------------------------

--------------------------------------------------------------------------------
                                 MP(2) Summary                                  
--------------------------------------------------------------------------------
  MP energy contribution:                                   -0.8636345504 a.u.
  Total energy:                                           -263.5479033821 a.u.
  Dip. moment [a.u.]:                  [  -0.000009,   -0.000006,   -0.000000]
  Total dipole [Debye]:                                               0.000027
  <r^2> [a.u.]:                        [ 191.916863,  198.729406,   27.460423]
  Total <r^2> [a.u.]:                                               418.106692
--------------------------------------------------------------------------------
  Starting Davidson for singlet states of irrep A ... 
--------------------------------------------------------------------------------
   It NVec Conv  Avg. Norm  Max. Norm  Conv. states           Remark
--------------------------------------------------------------------------------
        40    0  7.656e-02  6.365e-01  0.3437 n n n n n n n n Guess.
    1   80    0  2.058e-02  2.480e-01  0.1717 n n n n n n n n 
    2  120    0  5.764e-03  5.328e-02  0.1603 n n n n n n n n 
    3  160    0  4.978e-03  1.395e-01  0.1588 n n n n n n n n 
    4  200    0  7.194e-03  2.667e-01  0.1585 n n n n n n n n 
    5   80    0  4.137e-03  1.446e-01  0.1585 n n n n n n n n Subspace collapsed.
    6  120    0  5.410e-03  1.669e-01  0.1585 n n n n n n n n 
    7  160    0  5.407e-03  1.239e-01  0.1585 n n n n n n n n 
    8  200    0  3.463e-03  7.013e-02  0.1585 n n n n n n n n 
    9   80    0  1.558e-03  3.073e-02  0.1585 n n n n n n n n Subspace collapsed.
   10  120    0  1.427e-03  3.888e-02  0.1585 n n n n n n n n 
   11  160    0  2.769e-03  1.040e-01  0.1585 n n n n n n n n 
   12  200    0  2.659e-03  7.756e-02  0.1585 n n n n n n n n 
   13   80    1  1.371e-03  4.296e-02  0.1585 n n y n n n n n Subspace collapsed.
   14  120    3  1.321e-03  4.063e-02  0.1585 n y y n n n n n 
   15  160    6  9.151e-04  3.466e-02  0.1585 y y y y n n y n 
   16  200   10  1.291e-03  5.081e-02  0.1585 y y y y n n y y 
   17   80   13  5.714e-04  2.227e-02  0.1585 y y y y y y y y Subspace collapsed.
   18  120   14  8.076e-04  3.185e-02  0.1585 y y y y y y y y 
   19  160   16  4.331e-04  1.702e-02  0.1585 y y y y y y y y 
   20  200   16  5.010e-04  1.967e-02  0.1585 y y y y y y y y 
   21   80   18  2.013e-04  7.887e-03  0.1585 y y y y y y y y Subspace collapsed.
   22  120   21  2.739e-04  1.078e-02  0.1585 y y y y y y y y 
   23  160   22  1.610e-04  6.322e-03  0.1585 y y y y y y y y 
   24  200   22  1.444e-04  5.653e-03  0.1585 y y y y y y y y 
   25   80   24  6.668e-05  2.604e-03  0.1585 y y y y y y y y Subspace collapsed.
   26  120   24  9.762e-05  3.834e-03  0.1585 y y y y y y y y 
   27  160   26  5.303e-05  2.078e-03  0.1585 y y y y y y y y 
   28  199   26  5.134e-05  1.985e-03  0.1585 y y y y y y y y 
   29  200   27  5.134e-05  1.985e-03  0.1585 y y y y y y y y 
   30   79   28  1.885e-05  7.257e-04  0.1585 y y y y y y y y Subspace collapsed.
   31  116   29  2.482e-05  9.604e-04  0.1585 y y y y y y y y 
   32  153   30  1.441e-05  5.546e-04  0.1585 y y y y y y y y 
   33  190   30  1.275e-05  4.715e-04  0.1585 y y y y y y y y 
   34  200   31  1.230e-05  4.611e-04  0.1585 y y y y y y y y 
   35   74   31  5.666e-06  2.096e-04  0.1585 y y y y y y y y Subspace collapsed.
   36   76   31  5.606e-06  2.100e-04  0.1585 y y y y y y y y 
   37   78   31  5.580e-06  2.097e-04  0.1585 y y y y y y y y 
   38   80   31  5.632e-06  2.121e-04  0.1585 y y y y y y y y 
   39   82   31  5.598e-06  2.110e-04  0.1585 y y y y y y y y 
   40   84   31  5.580e-06  2.100e-04  0.1585 y y y y y y y y 
   41  115   31  7.120e-06  2.747e-04  0.1585 y y y y y y y y 
   42  145   32  4.600e-06  1.705e-04  0.1585 y y y y y y y y 
   43  175   32  4.903e-06  1.400e-04  0.1585 y y y y y y y y 
   44  179   32  5.012e-06  1.407e-04  0.1585 y y y y y y y y 
   45  179   32  5.012e-06  1.407e-04  0.1585 y y y y y y y y 
   46  200   32  6.480e-04  2.592e-02  0.1585 y y y y y y y y 
   47   43   32  6.414e-04  2.566e-02  0.1585 y y y y y y y y Subspace collapsed.
   48   46   32  6.415e-04  2.566e-02  0.1585 y y y y y y y y 
   49   72   33  3.419e-04  1.368e-02  0.1585 y y y y y y y y 
   50   97   33  2.572e-04  1.029e-02  0.1585 y y y y y y y y 
   51  122   33  1.913e-04  7.652e-03  0.1585 y y y y y y y y 
   52  147   34  1.779e-04  7.117e-03  0.1585 y y y y y y y y 
   53  152   34  1.773e-04  7.091e-03  0.1585 y y y y y y y y 
   54  156   34  1.770e-04  7.080e-03  0.1585 y y y y y y y y 
   55  178   34  1.412e-04  5.646e-03  0.1585 y y y y y y y y 
   56  199   36  4.022e-04  1.609e-02  0.1585 y y y y y y y y 
   57  200   36  5.918e-04  2.367e-02  0.1585 y y y y y y y y 
   58   60   36  3.468e-04  1.387e-02  0.1585 y y y y y y y y Subspace collapsed.
   59   79   37  2.723e-04  1.089e-02  0.1585 y y y y y y y y 
--------------------------------------------------------------------------------
  Davidson Summary: 
 ------------------------------------------------------------
  State  0: excitation energy =   0.1585 a.u.   (converged)
  State  1: excitation energy =   0.1835 a.u.   (converged)
  State  2: excitation energy =   0.1882 a.u.   (converged)
  State  3: excitation energy =   0.2205 a.u.   (converged)
  State  4: excitation energy =   0.2408 a.u.   (converged)
  State  5: excitation energy =   0.2491 a.u.   (converged)
  State  6: excitation energy =   0.2567 a.u.   (converged)
  State  7: excitation energy =   0.2627 a.u.   (converged)
  State  8: excitation energy =   0.2714 a.u.   (converged)
  State  9: excitation energy =   0.2734 a.u.   (converged)
  State 10: excitation energy =   0.2875 a.u.   (converged)
  State 11: excitation energy =   0.2886 a.u.   (converged)
  State 12: excitation energy =   0.2907 a.u.   (converged)
  State 13: excitation energy =   0.2911 a.u.   (converged)
  State 14: excitation energy =   0.2942 a.u.   (converged)
  State 15: excitation energy =   0.2966 a.u.   (converged)
  State 16: excitation energy =   0.3043 a.u.   (converged)
  State 17: excitation energy =   0.3046 a.u.   (converged)
  State 18: excitation energy =   0.3108 a.u.   (converged)
  State 19: excitation energy =   0.3118 a.u.   (converged)
  State 20: excitation energy =   0.3123 a.u.   (converged)
  State 21: excitation energy =   0.3167 a.u.   (converged)
  State 22: excitation energy =   0.3233 a.u.   (converged)
  State 23: excitation energy =   0.3251 a.u.   (converged)
  State 24: excitation energy =   0.3255 a.u.   (converged)
  State 25: excitation energy =   0.3256 a.u.   (converged)
  State 26: excitation energy =   0.3306 a.u.   (converged)
  State 27: excitation energy =   0.3329 a.u.   (converged)
  State 28: excitation energy =   0.3363 a.u.   (converged)
  State 29: excitation energy =   0.3370 a.u.   (converged)
  State 30: excitation energy =   0.3380 a.u.   (converged)
  State 31: excitation energy =   0.3409 a.u.   (not converged)
  State 32: excitation energy =   0.3416 a.u.   (converged)
  State 33: excitation energy =   0.3465 a.u.   (converged)
  State 34: excitation energy =   0.3468 a.u.   (converged)
  State 35: excitation energy =   0.3505 a.u.   (converged)
  State 36: excitation energy =   0.3517 a.u.   (converged)
  State 37: excitation energy =   0.3560 a.u.   (not converged)
  State 38: excitation energy =   0.3584 a.u.   (converged)
  State 39: excitation energy =   0.3593 a.u.   (not converged)
 ------------------------------------------------------------


--------------------------------------------------------------------------------
                             Excited State Summary
--------------------------------------------------------------------------------
--------------------------------------------------------------------------------

  Excited state  1 (singlet, A)                                    [converged]
  ----------------------------------------------------------------------------
  Term symbol:  2 (1) A                                     R^2 =  1.16988e-13

  Total energy:                                           -263.3894119888 a.u.
  Excitation energy:                                               4.312770 eV

  Osc. strength:                                                      0.007211
  Trans. dip. moment [a.u.]:           [   0.000000,   -0.000000,    0.261240]
  <i|r^2|0> [a.u.]:                    [  -0.000000,   -0.000000,   -0.000000]


  V1^2 = 0.9117, V2^2 = 0.0883

  Important amplitudes:
      occ i      occ j       vir a       vir b          v   
    ---------------------------------------------------------
     20 (A) A               22 (A) A                  0.6228
     20 (A) A               29 (A) A                  0.2374
    ---------------------------------------------------------
  ----------------------------------------------------------------------------


  Excited state  2 (singlet, A)                                    [converged]
  ----------------------------------------------------------------------------
  Term symbol:  3 (1) A                                     R^2 =  2.30554e-13

  Total energy:                                           -263.3644345232 a.u.
  Excitation energy:                                               4.992442 eV

  Osc. strength:                                                      0.000000
  Trans. dip. moment [a.u.]:           [  -0.000000,   -0.000000,    0.000000]
  <i|r^2|0> [a.u.]:                    [   0.000000,   -0.000000,    0.000000]


  V1^2 = 0.8970, V2^2 = 0.1030

  Important amplitudes:
      occ i      occ j       vir a       vir b          v   
    ---------------------------------------------------------
     20 (A) A               26 (A) A                  0.6320
     20 (A) A               38 (A) A                  0.2114
    ---------------------------------------------------------
  ----------------------------------------------------------------------------


  Excited state  3 (singlet, A)                                    [converged]
  ----------------------------------------------------------------------------
  Term symbol:  4 (1) A                                     R^2 =  1.01492e-13

  Total energy:                                           -263.3597498689 a.u.
  Excitation energy:                                               5.119917 eV

  Osc. strength:                                                      0.078671
  Trans. dip. moment [a.u.]:           [  -0.791946,    0.000002,   -0.000000]
  <i|r^2|0> [a.u.]:                    [   0.000033,   -0.000003,   -0.000019]


  V1^2 = 0.9030, V2^2 = 0.0970

  Important amplitudes:
      occ i      occ j       vir a       vir b          v   
    ---------------------------------------------------------
     21 (A) A               22 (A) A                 -0.5761
     19 (A) A               26 (A) A                 -0.2430
    ---------------------------------------------------------
  ----------------------------------------------------------------------------


  Excited state  4 (singlet, A)                                    [converged]
  ----------------------------------------------------------------------------
  Term symbol:  5 (1) A                                     R^2 =  8.88686e-14

  Total energy:                                           -263.3274120712 a.u.
  Excitation energy:                                               5.999874 eV

  Osc. strength:                                                      0.000000
  Trans. dip. moment [a.u.]:           [   0.000000,   -0.000000,   -0.000001]
  <i|r^2|0> [a.u.]:                    [  -0.000000,   -0.000000,    0.000000]


  V1^2 = 0.9041, V2^2 = 0.0959

  Important amplitudes:
      occ i      occ j       vir a       vir b          v   
    ---------------------------------------------------------
     18 (A) A               22 (A) A                  0.6197
     18 (A) A               29 (A) A                  0.2357
    ---------------------------------------------------------
  ----------------------------------------------------------------------------


  Excited state  5 (singlet, A)                                    [converged]
  ----------------------------------------------------------------------------
  Term symbol:  6 (1) A                                     R^2 =  2.49525e-13

  Total energy:                                           -263.3070534727 a.u.
  Excitation energy:                                               6.553859 eV

  Osc. strength:                                                      0.000000
  Trans. dip. moment [a.u.]:           [  -0.000032,    0.000002,   -0.000000]
  <i|r^2|0> [a.u.]:                    [  -2.634640,    2.105076,    0.459592]


  V1^2 = 0.8945, V2^2 = 0.1055

  Important amplitudes:
      occ i      occ j       vir a       vir b          v   
    ---------------------------------------------------------
     20 (A) A               23 (A) A                 -0.6425
     20 (A) A               43 (A) A                 -0.0907
    ---------------------------------------------------------
  ----------------------------------------------------------------------------


  Excited state  6 (singlet, A)                                    [converged]
  ----------------------------------------------------------------------------
  Term symbol:  7 (1) A                                     R^2 =  8.05654e-14

  Total energy:                                           -263.2988446249 a.u.
  Excitation energy:                                               6.777233 eV

  Osc. strength:                                                      0.000000
  Trans. dip. moment [a.u.]:           [   0.000000,   -0.000000,   -0.000006]
  <i|r^2|0> [a.u.]:                    [   0.000000,   -0.000000,   -0.000000]


  V1^2 = 0.8757, V2^2 = 0.1243

  Important amplitudes:
      occ i      occ j       vir a       vir b          v   
    ---------------------------------------------------------
     18 (A) A               26 (A) A                  0.6275
     18 (A) A               38 (A) A                  0.2035
    ---------------------------------------------------------
  ----------------------------------------------------------------------------


  Excited state  7 (singlet, A)                                    [converged]
  ----------------------------------------------------------------------------
  Term symbol:  8 (1) A                                     R^2 =  2.72961e-14

  Total energy:                                           -263.2912229121 a.u.
  Excitation energy:                                               6.984631 eV

  Osc. strength:                                                      0.074479
  Trans. dip. moment [a.u.]:           [  -0.000004,    0.659730,   -0.000000]
  <i|r^2|0> [a.u.]:                    [  -0.000012,    0.000009,    0.000002]


  V1^2 = 0.9375, V2^2 = 0.0625

  Important amplitudes:
      occ i      occ j       vir a       vir b          v   
    ---------------------------------------------------------
     21 (A) A               26 (A) A                 -0.5756
     19 (A) A               22 (A) A                  0.2765
    ---------------------------------------------------------
  ----------------------------------------------------------------------------


  Excited state  8 (singlet, A)                                    [converged]
  ----------------------------------------------------------------------------
  Term symbol:  9 (1) A                                     R^2 =  2.56608e-13

  Total energy:                                           -263.2852058724 a.u.
  Excitation energy:                                               7.148363 eV

  Osc. strength:                                                      0.055161
  Trans. dip. moment [a.u.]:           [   0.561223,   -0.000007,   -0.000000]
  <i|r^2|0> [a.u.]:                    [   0.000171,    0.000080,    0.000036]


  V1^2 = 0.8875, V2^2 = 0.1125

  Important amplitudes:
      occ i      occ j       vir a       vir b          v   
    ---------------------------------------------------------
     20 (A) A               24 (A) A                 -0.6516
     20 (A) A               45 (A) A                 -0.1031
    ---------------------------------------------------------
  ----------------------------------------------------------------------------


  Excited state  9 (singlet, A)                                    [converged]
  ----------------------------------------------------------------------------
  Term symbol:  10 (1) A                                    R^2 =  1.86388e-13

  Total energy:                                           -263.2765248212 a.u.
  Excitation energy:                                               7.384586 eV

  Osc. strength:                                                      0.118343
  Trans. dip. moment [a.u.]:           [   0.000005,    0.808777,   -0.000000]
  <i|r^2|0> [a.u.]:                    [  -0.000003,    0.000001,   -0.000000]


  V1^2 = 0.9014, V2^2 = 0.0986

  Important amplitudes:
      occ i      occ j       vir a       vir b          v   
    ---------------------------------------------------------
     20 (A) A               25 (A) A                  0.6020
     21 (A) A               26 (A) A                 -0.1826
    ---------------------------------------------------------
  ----------------------------------------------------------------------------


  Excited state 10 (singlet, A)                                    [converged]
  ----------------------------------------------------------------------------
  Term symbol:  11 (1) A                                    R^2 =  6.28561e-14

  Total energy:                                           -263.2745170891 a.u.
  Excitation energy:                                               7.439219 eV

  Osc. strength:                                                      0.000000
  Trans. dip. moment [a.u.]:           [   0.000000,   -0.000000,   -0.000006]
  <i|r^2|0> [a.u.]:                    [   0.000000,   -0.000000,    0.000000]


  V1^2 = 0.9387, V2^2 = 0.0613

  Important amplitudes:
      occ i      occ j       vir a       vir b          v   
    ---------------------------------------------------------
     21 (A) A               23 (A) A                  0.6531
     21 (A) A               31 (A) A                 -0.1359
    ---------------------------------------------------------
  ----------------------------------------------------------------------------


  Excited state 11 (singlet, A)                                    [converged]
  ----------------------------------------------------------------------------
  Term symbol:  12 (1) A                                    R^2 =  2.73022e-13

  Total energy:                                           -263.2604040138 a.u.
  Excitation energy:                                               7.823256 eV

  Osc. strength:                                                      0.002636
  Trans. dip. moment [a.u.]:           [  -0.000000,    0.000000,    0.117276]
  <i|r^2|0> [a.u.]:                    [  -0.000000,    0.000000,    0.000000]


  V1^2 = 0.8934, V2^2 = 0.1066

  Important amplitudes:
      occ i      occ j       vir a       vir b          v   
    ---------------------------------------------------------
     20 (A) A               29 (A) A                  0.6188
     20 (A) A               22 (A) A                 -0.2307
    ---------------------------------------------------------
  ----------------------------------------------------------------------------


  Excited state 12 (singlet, A)                                    [converged]
  ----------------------------------------------------------------------------
  Term symbol:  13 (1) A                                    R^2 =  5.90043e-13

  Total energy:                                           -263.2592969751 a.u.
  Excitation energy:                                               7.853380 eV

  Osc. strength:                                                      0.000000
  Trans. dip. moment [a.u.]:           [   0.000096,   -0.000004,    0.000000]
  <i|r^2|0> [a.u.]:                    [  -2.556961,   -0.489087,   -0.404871]


  V1^2 = 0.8912, V2^2 = 0.1088

  Important amplitudes:
      occ i      occ j       vir a       vir b          v   
    ---------------------------------------------------------
     20 (A) A               28 (A) A                 -0.6418
     20 (A) A               43 (A) A                  0.1034
    ---------------------------------------------------------
  ----------------------------------------------------------------------------


  Excited state 13 (singlet, A)                                    [converged]
  ----------------------------------------------------------------------------
  Term symbol:  14 (1) A                                    R^2 =  4.95551e-13

  Total energy:                                           -263.2572082979 a.u.
  Excitation energy:                                               7.910216 eV

  Osc. strength:                                                      0.000000
  Trans. dip. moment [a.u.]:           [  -0.000024,    0.000032,   -0.000000]
  <i|r^2|0> [a.u.]:                    [   0.000004,   -0.000015,    0.000000]


  V1^2 = 0.8927, V2^2 = 0.1073

  Important amplitudes:
      occ i      occ j       vir a       vir b          v   
    ---------------------------------------------------------
     20 (A) A               27 (A) A                 -0.6398
     20 (A) A               46 (A) A                  0.1194
    ---------------------------------------------------------
  ----------------------------------------------------------------------------


  Excited state 14 (singlet, A)                                    [converged]
  ----------------------------------------------------------------------------
  Term symbol:  15 (1) A                                    R^2 =  4.42283e-13

  Total energy:                                           -263.2567686628 a.u.
  Excitation energy:                                               7.922179 eV

  Osc. strength:                                                      0.457073
  Trans. dip. moment [a.u.]:           [   1.534587,    0.000026,   -0.000000]
  <i|r^2|0> [a.u.]:                    [   0.000183,    0.000048,   -0.000001]


  V1^2 = 0.9149, V2^2 = 0.0851

  Important amplitudes:
      occ i      occ j       vir a       vir b          v   
    ---------------------------------------------------------
     19 (A) A               26 (A) A                 -0.5330
     21 (A) A               22 (A) A                  0.3077
    ---------------------------------------------------------
  ----------------------------------------------------------------------------


  Excited state 15 (singlet, A)                                    [converged]
  ----------------------------------------------------------------------------
  Term symbol:  16 (1) A                                    R^2 =  5.72081e-13

  Total energy:                                           -263.2537281364 a.u.
  Excitation energy:                                               8.004916 eV

  Osc. strength:                                                      0.041501
  Trans. dip. moment [a.u.]:           [  -0.000000,   -0.000000,   -0.460014]
  <i|r^2|0> [a.u.]:                    [   0.000000,    0.000000,    0.000000]


  V1^2 = 0.9366, V2^2 = 0.0634

  Important amplitudes:
      occ i      occ j       vir a       vir b          v   
    ---------------------------------------------------------
     21 (A) A               24 (A) A                  0.6681
     21 (A) A               45 (A) A                  0.1109
    ---------------------------------------------------------
  ----------------------------------------------------------------------------


  Excited state 16 (singlet, A)                                    [converged]
  ----------------------------------------------------------------------------
  Term symbol:  17 (1) A                                    R^2 =  1.34226e-13

  Total energy:                                           -263.2512622815 a.u.
  Excitation energy:                                               8.072015 eV

  Osc. strength:                                                      0.330561
  Trans. dip. moment [a.u.]:           [   0.000032,   -1.292872,    0.000000]
  <i|r^2|0> [a.u.]:                    [  -0.000001,    0.000014,   -0.000003]


  V1^2 = 0.9105, V2^2 = 0.0895

  Important amplitudes:
      occ i      occ j       vir a       vir b          v   
    ---------------------------------------------------------
     19 (A) A               22 (A) A                  0.5207
     18 (A) A               23 (A) A                 -0.2429
    ---------------------------------------------------------
  ----------------------------------------------------------------------------


  Excited state 17 (singlet, A)                                    [converged]
  ----------------------------------------------------------------------------
  Term symbol:  18 (1) A                                    R^2 =  7.02397e-13

  Total energy:                                           -263.2436332232 a.u.
  Excitation energy:                                               8.279612 eV

  Osc. strength:                                                      0.000000
  Trans. dip. moment [a.u.]:           [   0.000000,   -0.000000,    0.000002]
  <i|r^2|0> [a.u.]:                    [   0.000000,   -0.000000,   -0.000000]


  V1^2 = 0.9135, V2^2 = 0.0865

  Important amplitudes:
      occ i      occ j       vir a       vir b          v   
    ---------------------------------------------------------
     17 (A) A               22 (A) A                  0.6182
     17 (A) A               29 (A) A                  0.2388
    ---------------------------------------------------------
  ----------------------------------------------------------------------------


  Excited state 18 (singlet, A)                                    [converged]
  ----------------------------------------------------------------------------
  Term symbol:  19 (1) A                                    R^2 =  8.78705e-13

  Total energy:                                           -263.2433135430 a.u.
  Excitation energy:                                               8.288311 eV

  Osc. strength:                                                      0.223959
  Trans. dip. moment [a.u.]:           [   0.000005,   -1.050201,    0.000000]
  <i|r^2|0> [a.u.]:                    [   0.000000,    0.000025,    0.000002]


  V1^2 = 0.8681, V2^2 = 0.1319

  Important amplitudes:
      occ i      occ j       vir a       vir b          v   
    ---------------------------------------------------------
     18 (A) A               23 (A) A                  0.5632
     20 (A) A               25 (A) A                  0.1949
    ---------------------------------------------------------
  ----------------------------------------------------------------------------


  Excited state 19 (singlet, A)                                    [converged]
  ----------------------------------------------------------------------------
  Term symbol:  20 (1) A                                    R^2 =  8.87096e-13

  Total energy:                                           -263.2371072507 a.u.
  Excitation energy:                                               8.457193 eV

  Osc. strength:                                                      0.000000
  Trans. dip. moment [a.u.]:           [  -0.000021,   -0.000001,   -0.000000]
  <i|r^2|0> [a.u.]:                    [   0.480212,   -3.039584,   -0.141734]


  V1^2 = 0.8985, V2^2 = 0.1015

  Important amplitudes:
      occ i      occ j       vir a       vir b          v   
    ---------------------------------------------------------
     20 (A) A               31 (A) A                  0.6214
     18 (A) A               25 (A) A                 -0.1839
    ---------------------------------------------------------
  ----------------------------------------------------------------------------


  Excited state 20 (singlet, A)                                    [converged]
  ----------------------------------------------------------------------------
  Term symbol:  21 (1) A                                    R^2 =  6.11916e-13

  Total energy:                                           -263.2361267714 a.u.
  Excitation energy:                                               8.483873 eV

  Osc. strength:                                                      0.000000
  Trans. dip. moment [a.u.]:           [  -0.000000,   -0.000000,   -0.000000]
  <i|r^2|0> [a.u.]:                    [  -0.000000,   -0.000000,    0.000000]


  V1^2 = 0.8926, V2^2 = 0.1074

  Important amplitudes:
      occ i      occ j       vir a       vir b          v   
    ---------------------------------------------------------
     20 (A) A               30 (A) A                 -0.6149
     20 (A) A               47 (A) A                  0.1974
    ---------------------------------------------------------
  ----------------------------------------------------------------------------


  Excited state 21 (singlet, A)                                    [converged]
  ----------------------------------------------------------------------------
  Term symbol:  22 (1) A                                    R^2 =  6.69547e-13

  Total energy:                                           -263.2356243627 a.u.
  Excitation energy:                                               8.497544 eV

  Osc. strength:                                                      0.000000
  Trans. dip. moment [a.u.]:           [   0.000000,    0.000000,   -0.000000]
  <i|r^2|0> [a.u.]:                    [   0.000000,   -0.000000,   -0.000000]


  V1^2 = 0.9342, V2^2 = 0.0658

  Important amplitudes:
      occ i      occ j       vir a       vir b          v   
    ---------------------------------------------------------
     21 (A) A               25 (A) A                 -0.6610
     21 (A) A               36 (A) A                 -0.1215
    ---------------------------------------------------------
  ----------------------------------------------------------------------------


  Excited state 22 (singlet, A)                                    [converged]
  ----------------------------------------------------------------------------
  Term symbol:  23 (1) A                                    R^2 =  1.75124e-11

  Total energy:                                           -263.2312303916 a.u.
  Excitation energy:                                               8.617110 eV

  Osc. strength:                                                      0.000000
  Trans. dip. moment [a.u.]:           [   0.000000,   -0.000000,    0.000012]
  <i|r^2|0> [a.u.]:                    [  -0.000000,    0.000000,    0.000000]


  V1^2 = 0.9393, V2^2 = 0.0607

  Important amplitudes:
      occ i      occ j       vir a       vir b          v   
    ---------------------------------------------------------
     21 (A) A               28 (A) A                 -0.6570
     21 (A) A               43 (A) A                  0.1152
    ---------------------------------------------------------
  ----------------------------------------------------------------------------


  Excited state 23 (singlet, A)                                    [converged]
  ----------------------------------------------------------------------------
  Term symbol:  24 (1) A                                    R^2 =  5.01439e-11

  Total energy:                                           -263.2245691456 a.u.
  Excitation energy:                                               8.798372 eV

  Osc. strength:                                                      0.000000
  Trans. dip. moment [a.u.]:           [  -0.000000,   -0.000000,   -0.000006]
  <i|r^2|0> [a.u.]:                    [  -0.000000,    0.000000,    0.000000]


  V1^2 = 0.8917, V2^2 = 0.1083

  Important amplitudes:
      occ i      occ j       vir a       vir b          v   
    ---------------------------------------------------------
     20 (A) A               32 (A) A                  0.6634
     12 (A) A               32 (A) A                  0.0433
    ---------------------------------------------------------
  ----------------------------------------------------------------------------


  Excited state 24 (singlet, A)                                    [converged]
  ----------------------------------------------------------------------------
  Term symbol:  25 (1) A                                    R^2 =  4.52944e-10

  Total energy:                                           -263.2228018686 a.u.
  Excitation energy:                                               8.846462 eV

  Osc. strength:                                                      0.000000
  Trans. dip. moment [a.u.]:           [   0.000010,    0.000007,   -0.000000]
  <i|r^2|0> [a.u.]:                    [   0.000006,   -0.000014,    0.000001]


  V1^2 = 0.8584, V2^2 = 0.1416

  Important amplitudes:
      occ i      occ j       vir a       vir b          v   
    ---------------------------------------------------------
     18 (A) A               24 (A) A                 -0.6340
     20 (A) A               27 (A) A                  0.1063
    ---------------------------------------------------------
  ----------------------------------------------------------------------------


  Excited state 25 (singlet, A)                                    [converged]
  ----------------------------------------------------------------------------
  Term symbol:  26 (1) A                                    R^2 =  1.47441e-11

  Total energy:                                           -263.2224285028 a.u.
  Excitation energy:                                               8.856622 eV

  Osc. strength:                                                      0.030253
  Trans. dip. moment [a.u.]:           [  -0.373400,    0.000001,    0.000000]
  <i|r^2|0> [a.u.]:                    [   0.000058,   -0.000130,   -0.000015]


  V1^2 = 0.9350, V2^2 = 0.0650

  Important amplitudes:
      occ i      occ j       vir a       vir b          v   
    ---------------------------------------------------------
     21 (A) A               29 (A) A                 -0.6095
     19 (A) A               26 (A) A                  0.2239
    ---------------------------------------------------------
  ----------------------------------------------------------------------------


  Excited state 26 (singlet, A)                                    [converged]
  ----------------------------------------------------------------------------
  Term symbol:  27 (1) A                                    R^2 =  8.58661e-13

  Total energy:                                           -263.2223327682 a.u.
  Excitation energy:                                               8.859227 eV

  Osc. strength:                                                      0.000000
  Trans. dip. moment [a.u.]:           [   0.000000,   -0.000000,   -0.000001]
  <i|r^2|0> [a.u.]:                    [  -0.000000,    0.000000,    0.000000]


  V1^2 = 0.9256, V2^2 = 0.0744

  Important amplitudes:
      occ i      occ j       vir a       vir b          v   
    ---------------------------------------------------------
     19 (A) A               23 (A) A                  0.5078
     21 (A) A               27 (A) A                 -0.4083
    ---------------------------------------------------------
  ----------------------------------------------------------------------------


  Excited state 27 (singlet, A)                                    [converged]
  ----------------------------------------------------------------------------
  Term symbol:  28 (1) A                                    R^2 =  1.24797e-11

  Total energy:                                           -263.2172841498 a.u.
  Excitation energy:                                               8.996607 eV

  Osc. strength:                                                      0.000000
  Trans. dip. moment [a.u.]:           [   0.000000,   -0.000000,    0.000000]
  <i|r^2|0> [a.u.]:                    [  -0.000000,    0.000000,    0.000000]


  V1^2 = 0.9249, V2^2 = 0.0751

  Important amplitudes:
      occ i      occ j       vir a       vir b          v   
    ---------------------------------------------------------
     21 (A) A               27 (A) A                  0.5280
     19 (A) A               23 (A) A                  0.3888
    ---------------------------------------------------------
  ----------------------------------------------------------------------------


  Excited state 28 (singlet, A)                                    [converged]
  ----------------------------------------------------------------------------
  Term symbol:  29 (1) A                                    R^2 =  1.13612e-09

  Total energy:                                           -263.2150245667 a.u.
  Excitation energy:                                               9.058093 eV

  Osc. strength:                                                      0.005137
  Trans. dip. moment [a.u.]:           [   0.000000,   -0.000000,    0.152150]
  <i|r^2|0> [a.u.]:                    [  -0.000000,    0.000000,    0.000000]


  V1^2 = 0.9134, V2^2 = 0.0866

  Important amplitudes:
      occ i      occ j       vir a       vir b          v   
    ---------------------------------------------------------
     17 (A) A               26 (A) A                 -0.6335
     17 (A) A               38 (A) A                 -0.2141
    ---------------------------------------------------------
  ----------------------------------------------------------------------------


  Excited state 29 (singlet, A)                                    [converged]
  ----------------------------------------------------------------------------
  Term symbol:  30 (1) A                                    R^2 =  1.32751e-07

  Total energy:                                           -263.2115717613 a.u.
  Excitation energy:                                               9.152049 eV

  Osc. strength:                                                      0.000000
  Trans. dip. moment [a.u.]:           [  -0.000140,   -0.000009,   -0.000000]
  <i|r^2|0> [a.u.]:                    [   0.991709,   -3.060434,    0.108919]


  V1^2 = 0.8636, V2^2 = 0.1364

  Important amplitudes:
      occ i      occ j       vir a       vir b          v   
    ---------------------------------------------------------
     18 (A) A               25 (A) A                 -0.5519
     16 (A) A               22 (A) A                 -0.2468
    ---------------------------------------------------------
  ----------------------------------------------------------------------------


  Excited state 30 (singlet, A)                                    [converged]
  ----------------------------------------------------------------------------
  Term symbol:  31 (1) A                                    R^2 =  1.95633e-10

  Total energy:                                           -263.2108759261 a.u.
  Excitation energy:                                               9.170983 eV

  Osc. strength:                                                      0.048605
  Trans. dip. moment [a.u.]:           [   0.465109,   -0.000021,   -0.000000]
  <i|r^2|0> [a.u.]:                    [   0.000375,   -0.001233,    0.000008]


  V1^2 = 0.8963, V2^2 = 0.1037

  Important amplitudes:
      occ i      occ j       vir a       vir b          v   
    ---------------------------------------------------------
     20 (A) A               33 (A) A                 -0.6027
     18 (A) A               27 (A) A                  0.2078
    ---------------------------------------------------------
  ----------------------------------------------------------------------------


  Excited state 31 (singlet, A)                                    [converged]
  ----------------------------------------------------------------------------
  Term symbol:  32 (1) A                                    R^2 =  6.83235e-10

  Total energy:                                           -263.2099210910 a.u.
  Excitation energy:                                               9.196966 eV

  Osc. strength:                                                      0.000000
  Trans. dip. moment [a.u.]:           [   0.000006,   -0.000038,   -0.000000]
  <i|r^2|0> [a.u.]:                    [   0.000005,    0.000042,    0.000007]


  V1^2 = 0.8807, V2^2 = 0.1193

  Important amplitudes:
      occ i      occ j       vir a       vir b          v   
    ---------------------------------------------------------
     21 (A) A               30 (A) A                  0.4948
     21 (A) A               47 (A) A                 -0.2530
    ---------------------------------------------------------
  ----------------------------------------------------------------------------


  Excited state 32 (singlet, A)                                [not converged]
  ----------------------------------------------------------------------------
  Term symbol:  33 (1) A                                    R^2 =  3.75802e-06

  Total energy:                                           -263.2069932415 a.u.
  Excitation energy:                                               9.276637 eV



  V1^2 = 0.8466, V2^2 = 0.1534

  Important amplitudes:
      occ i      occ j       vir a       vir b          v   
    ---------------------------------------------------------
     16 (A) A               22 (A) A                 -0.5140
     18 (A) A               25 (A) A                  0.2650
    ---------------------------------------------------------
  ----------------------------------------------------------------------------


  Excited state 33 (singlet, A)                                    [converged]
  ----------------------------------------------------------------------------
  Term symbol:  34 (1) A                                    R^2 =  3.85115e-08

  Total energy:                                           -263.2062990760 a.u.
  Excitation energy:                                               9.295526 eV

  Osc. strength:                                                      0.031805
  Trans. dip. moment [a.u.]:           [   0.000021,    0.373707,   -0.000000]
  <i|r^2|0> [a.u.]:                    [   0.000017,   -0.000004,    0.000005]


  V1^2 = 0.8963, V2^2 = 0.1037

  Important amplitudes:
      occ i      occ j       vir a       vir b          v   
    ---------------------------------------------------------
     20 (A) A               34 (A) A                 -0.5792
     18 (A) A               28 (A) A                  0.2839
    ---------------------------------------------------------
  ----------------------------------------------------------------------------


  Excited state 34 (singlet, A)                                    [converged]
  ----------------------------------------------------------------------------
  Term symbol:  35 (1) A                                    R^2 =  1.68344e-09

  Total energy:                                           -263.2014447234 a.u.
  Excitation energy:                                               9.427620 eV

  Osc. strength:                                                      0.000000
  Trans. dip. moment [a.u.]:           [   0.000000,   -0.000000,    0.000001]
  <i|r^2|0> [a.u.]:                    [   0.000000,   -0.000000,    0.000000]


  V1^2 = 0.8756, V2^2 = 0.1244

  Important amplitudes:
      occ i      occ j       vir a       vir b          v   
    ---------------------------------------------------------
     18 (A) A               29 (A) A                 -0.5724
     18 (A) A               22 (A) A                  0.2201
    ---------------------------------------------------------
  ----------------------------------------------------------------------------


  Excited state 35 (singlet, A)                                    [converged]
  ----------------------------------------------------------------------------
  Term symbol:  36 (1) A                                    R^2 =  2.15494e-07

  Total energy:                                           -263.2010883524 a.u.
  Excitation energy:                                               9.437317 eV

  Osc. strength:                                                      0.000000
  Trans. dip. moment [a.u.]:           [  -0.000000,   -0.000000,    0.000019]
  <i|r^2|0> [a.u.]:                    [   0.000000,   -0.000000,    0.000001]


  V1^2 = 0.9386, V2^2 = 0.0614

  Important amplitudes:
      occ i      occ j       vir a       vir b          v   
    ---------------------------------------------------------
     21 (A) A               31 (A) A                  0.6522
     21 (A) A               23 (A) A                  0.1104
    ---------------------------------------------------------
  ----------------------------------------------------------------------------


  Excited state 36 (singlet, A)                                    [converged]
  ----------------------------------------------------------------------------
  Term symbol:  37 (1) A                                    R^2 =  2.92694e-07

  Total energy:                                           -263.1973608028 a.u.
  Excitation energy:                                               9.538749 eV

  Osc. strength:                                                      0.030827
  Trans. dip. moment [a.u.]:           [  -0.000002,   -0.363198,   -0.000000]
  <i|r^2|0> [a.u.]:                    [  -0.000003,    0.000004,   -0.000002]


  V1^2 = 0.8618, V2^2 = 0.1382

  Important amplitudes:
      occ i      occ j       vir a       vir b          v   
    ---------------------------------------------------------
     18 (A) A               28 (A) A                  0.5571
     20 (A) A               34 (A) A                  0.2887
    ---------------------------------------------------------
  ----------------------------------------------------------------------------


  Excited state 37 (singlet, A)                                    [converged]
  ----------------------------------------------------------------------------
  Term symbol:  38 (1) A                                    R^2 =  2.13759e-08

  Total energy:                                           -263.1961830614 a.u.
  Excitation energy:                                               9.570797 eV

  Osc. strength:                                                      0.000000
  Trans. dip. moment [a.u.]:           [   0.000000,    0.000000,    0.000002]
  <i|r^2|0> [a.u.]:                    [  -0.000000,    0.000000,   -0.000000]


  V1^2 = 0.9088, V2^2 = 0.0912

  Important amplitudes:
      occ i      occ j       vir a       vir b          v   
    ---------------------------------------------------------
     19 (A) A               24 (A) A                 -0.6579
     19 (A) A               45 (A) A                 -0.1089
    ---------------------------------------------------------
  ----------------------------------------------------------------------------


  Excited state 38 (singlet, A)                                [not converged]
  ----------------------------------------------------------------------------
  Term symbol:  39 (1) A                                    R^2 =  9.34425e-06

  Total energy:                                           -263.1919492785 a.u.
  Excitation energy:                                               9.686004 eV



  V1^2 = 0.8608, V2^2 = 0.1392

  Important amplitudes:
      occ i      occ j       vir a       vir b          v   
    ---------------------------------------------------------
     18 (A) A               27 (A) A                  0.5990
     20 (A) A               33 (A) A                  0.2289
    ---------------------------------------------------------
  ----------------------------------------------------------------------------


  Excited state 39 (singlet, A)                                    [converged]
  ----------------------------------------------------------------------------
  Term symbol:  40 (1) A                                    R^2 =  9.30026e-07

  Total energy:                                           -263.1895011817 a.u.
  Excitation energy:                                               9.752620 eV

  Osc. strength:                                                      0.000000
  Trans. dip. moment [a.u.]:           [  -0.000000,    0.000000,   -0.000003]
  <i|r^2|0> [a.u.]:                    [   0.000066,    0.000003,    0.000125]


  V1^2 = 0.8770, V2^2 = 0.1230

  Important amplitudes:
      occ i      occ j       vir a       vir b          v   
    ---------------------------------------------------------
     20 (A) A               42 (A) A                 -0.4797
     20 (A) A               47 (A) A                 -0.2764
    ---------------------------------------------------------
  ----------------------------------------------------------------------------


  Excited state 40 (singlet, A)                                [not converged]
  ----------------------------------------------------------------------------
  Term symbol:  41 (1) A                                    R^2 =  1.08921e-02

  Total energy:                                           -263.1886365618 a.u.
  Excitation energy:                                               9.776147 eV



  V1^2 = 0.9167, V2^2 = 0.0833

  Important amplitudes:
      occ i      occ j       vir a       vir b          v   
    ---------------------------------------------------------
     15 (A) A               22 (A) A                  0.4792
     21 (A) A               32 (A) A                  0.4176
    ---------------------------------------------------------
  ----------------------------------------------------------------------------


--------------------------------------------------------------------------------
  Time of ADC calculation:  CPU 28416.59 s  wall 4931.43 s
================================================================================
 
 --------------------------------------------------------------
             Orbital Energies (a.u.) and Symmetries
 --------------------------------------------------------------
 
 Alpha MOs, Restricted
 -- Occupied --                  
-15.612 -15.612 -11.299 -11.299 -11.297 -11.297  -1.307  -1.222
  1 A'    2 A'    3 A'    4 A'    5 A'    6 A'    7 A'    8 A'                 
 -1.055  -0.906  -0.888  -0.726  -0.704  -0.679  -0.611  -0.572
  9 A'   10 A'   11 A'   12 A'   13 A'   14 A'   15 A'    1 A"                 
 -0.552  -0.506  -0.437  -0.419  -0.361
 16 A'   17 A'    2 A"   18 A'    3 A"                                         
 -- Virtual --                   
  0.064   0.072   0.081   0.086   0.097   0.103   0.116   0.126
  4 A"   19 A'   20 A'   21 A'    5 A"   22 A'   23 A'    6 A"                 
  0.129   0.144   0.148   0.148   0.156   0.194   0.195   0.211
  7 A"   24 A'    8 A"   25 A'   26 A'   27 A'   28 A'   29 A'                 
  0.214   0.260   0.291   0.298   0.319   0.320   0.326   0.349
  9 A"   30 A'   10 A"   31 A'   11 A"   32 A'   33 A'   34 A'                 
  0.350   0.354   0.370   0.390   0.390   0.436   0.453   0.463
 35 A'   12 A"   36 A'   37 A'   38 A'   39 A'   40 A'   41 A'                 
  0.499   0.537   0.551   0.773   0.783   0.831   0.859   0.869
 42 A'   43 A'   44 A'   45 A'   46 A'   47 A'   48 A'   13 A"                 
  0.892   0.912   0.956   0.959   1.079   1.120   1.137   1.145
 49 A'   14 A"   15 A"   16 A"   50 A'   51 A'   52 A'   53 A'                 
  1.150   1.208   1.224   1.229   1.260   1.268   1.284   1.295
 54 A'   55 A'   17 A"   56 A'   57 A'   58 A'   59 A'   18 A"                 
  1.304   1.352   1.368   1.378   1.480   1.483   1.483   1.589
 60 A'   61 A'   62 A'   63 A'   64 A'   65 A'   19 A"   66 A'                 
  1.629   1.742   1.744   1.762   1.777   1.778   1.947   2.026
 20 A"   21 A"   67 A'   22 A"   23 A"   24 A"   68 A'   69 A'                 
  2.087   2.156   2.204   2.321   2.367   2.408   2.489   2.540
 70 A'   71 A'   72 A'   73 A'   74 A'   25 A"   75 A'   76 A'                 
  2.551   2.578   2.595   2.644   2.736   2.902   2.904   3.023
 26 A"   27 A"   77 A'   28 A"   29 A"   78 A'   79 A'   30 A"                 
  3.027   3.050   3.081   3.127   3.185   3.421   3.712   4.424
 80 A'   81 A'   82 A'   83 A'   84 A'   85 A'   86 A'   87 A'                 
  4.634   4.709   4.740   4.784   4.968
 88 A'   89 A'   90 A'   91 A'   92 A'                                         
 
 Beta MOs, Restricted
 -- Occupied --                  
-15.612 -15.612 -11.299 -11.299 -11.297 -11.297  -1.307  -1.222
  1 A'    2 A'    3 A'    4 A'    5 A'    6 A'    7 A'    8 A'                 
 -1.055  -0.906  -0.888  -0.726  -0.704  -0.679  -0.611  -0.572
  9 A'   10 A'   11 A'   12 A'   13 A'   14 A'   15 A'    1 A"                 
 -0.552  -0.506  -0.437  -0.419  -0.361
 16 A'   17 A'    2 A"   18 A'    3 A"                                         
 -- Virtual --                   
  0.064   0.072   0.081   0.086   0.097   0.103   0.116   0.126
  4 A"   19 A'   20 A'   21 A'    5 A"   22 A'   23 A'    6 A"                 
  0.129   0.144   0.148   0.148   0.156   0.194   0.195   0.211
  7 A"   24 A'    8 A"   25 A'   26 A'   27 A'   28 A'   29 A'                 
  0.214   0.260   0.291   0.298   0.319   0.320   0.326   0.349
  9 A"   30 A'   10 A"   31 A'   11 A"   32 A'   33 A'   34 A'                 
  0.350   0.354   0.370   0.390   0.390   0.436   0.453   0.463
 35 A'   12 A"   36 A'   37 A'   38 A'   39 A'   40 A'   41 A'                 
  0.499   0.537   0.551   0.773   0.783   0.831   0.859   0.869
 42 A'   43 A'   44 A'   45 A'   46 A'   47 A'   48 A'   13 A"                 
  0.892   0.912   0.956   0.959   1.079   1.120   1.137   1.145
 49 A'   14 A"   15 A"   16 A"   50 A'   51 A'   52 A'   53 A'                 
  1.150   1.208   1.224   1.229   1.260   1.268   1.284   1.295
 54 A'   55 A'   17 A"   56 A'   57 A'   58 A'   59 A'   18 A"                 
  1.304   1.352   1.368   1.378   1.480   1.483   1.483   1.589
 60 A'   61 A'   62 A'   63 A'   64 A'   65 A'   19 A"   66 A'                 
  1.629   1.742   1.744   1.762   1.777   1.778   1.947   2.026
 20 A"   21 A"   67 A'   22 A"   23 A"   24 A"   68 A'   69 A'                 
  2.087   2.156   2.204   2.321   2.367   2.408   2.489   2.540
 70 A'   71 A'   72 A'   73 A'   74 A'   25 A"   75 A'   76 A'                 
  2.551   2.578   2.595   2.644   2.736   2.902   2.904   3.023
 26 A"   27 A"   77 A'   28 A"   29 A"   78 A'   79 A'   30 A"                 
  3.027   3.050   3.081   3.127   3.185   3.421   3.712   4.424
 80 A'   81 A'   82 A'   83 A'   84 A'   85 A'   86 A'   87 A'                 
  4.634   4.709   4.740   4.784   4.968
 88 A'   89 A'   90 A'   91 A'   92 A'                                         
 --------------------------------------------------------------
 
          Ground-State Mulliken Net Atomic Charges

     Atom                 Charge (a.u.)
  ----------------------------------------
      1 C                    -0.119876
      2 C                    -0.119878
      3 N                    -0.240407
      4 C                    -0.119862
      5 C                    -0.119870
      6 N                    -0.240403
      7 H                     0.240075
      8 H                     0.240075
      9 H                     0.240073
     10 H                     0.240073
  ----------------------------------------
  Sum of atomic charges =     0.000000

 -----------------------------------------------------------------
                    Cartesian Multipole Moments
 -----------------------------------------------------------------
    Charge (ESU x 10^10)
                 0.0000
    Dipole Moment (Debye)
         X      -0.0000      Y      -0.0000      Z      -0.0000
       Tot       0.0001
    Quadrupole Moments (Debye-Ang)
        XX     -26.4682     XY       0.0000     YY     -42.6080
        XZ      -0.0000     YZ       0.0000     ZZ     -37.4369
    Octopole Moments (Debye-Ang^2)
       XXX      -0.0005    XXY      -0.0000    XYY       0.0004
       YYY      -0.0002    XXZ       0.0000    XYZ       0.0000
       YYZ      -0.0000    XZZ      -0.0001    YZZ      -0.0000
       ZZZ       0.0000
    Hexadecapole Moments (Debye-Ang^3)
      XXXX    -230.4522   XXXY      -0.0001   XXYY     -71.0175
      XYYY       0.0004   YYYY    -316.1172   XXXZ      -0.0000
      XXYZ       0.0000   XYYZ      -0.0000   YYYZ       0.0000
      XXZZ     -56.9348   XYZZ       0.0000   YYZZ     -54.8392
      XZZZ      -0.0000   YZZZ       0.0000   ZZZZ     -42.2157
 -----------------------------------------------------------------
Archival summary:
1\1\Knecht17\SP\HF\BasisUnspecified\244\ccprak10\WedNov311:46:302021WedNov311:46:302021\0\\#,HF,BasisUnspecified,\\0,1\N\C,1,1.34905\H,2,1.09636,1,116.731\C,1,1.34907,2,114.604,3,180,0\H,4,1.09636,1,116.73,2,-180,0\C,4,1.40453,1,122.698,2,0,0\H,6,1.09635,4,120.572,1,180,0\N,6,1.34907,4,122.698,1,-0,0\C,8,1.34905,6,114.604,4,0,0\H,9,1.09636,8,116.734,6,-180,0\\HF=-262.684269\\@

 Total job time:  4988.36s(wall), 28492.10s(cpu) 
 Wed Nov  3 11:46:30 2021

        *************************************************************
        *                                                           *
        *  Thank you very much for using Q-Chem.  Have a nice day.  *
        *                                                           *
        *************************************************************


