Knecht20 192.168.1
Q-Chem Developer Version! Running on 192.168.1.*
                  Welcome to Q-Chem
     A Quantum Leap Into The Future Of Chemistry


 Q-Chem 5.0, Q-Chem, Inc., Pleasanton, CA (2017)

 Yihan Shao,  Zhengting Gan,  E. Epifanovsky,  A. T. B. Gilbert,  M. Wormit,  
 J. Kussmann,  A. W. Lange,  A. Behn,  Jia Deng,  Xintian Feng,  D. Ghosh,  
 M. Goldey,  P. R. Horn,  L. D. Jacobson,  I. Kaliman,  T. Kus,  A. Landau,  
 Jie Liu,  E. I. Proynov,  R. M. Richard,  R. P. Steele,  E. J. Sundstrom,  
 H. L. Woodcock III,  P. M. Zimmerman,  D. Zuev,  B. Albrecht,  E. Alguire,  
 S. A. Baeppler,  Z. Benda,  Y. A. Bernard,  E. J. Berquist,  K. B. Bravaya,  
 D. Casanova,  Chun-Min Chang,  Yunqing Chen,  A. Chien,  K. D. Closser,  
 M. P. Coons,  S. Dasgupta,  M. Diedenhofen,  Hainam Do,  R. G. Edgar,  
 Po-Tung Fang,  S. Fatehi,  Qingguo Feng,  Qinghui Ge,  A. Ghysels,  
 J. Gomes,  J. Gonthier,  A. Gunina,  M. W. D. Hanson-Heine,  
 P. H. P. Harbach,  A. W. Hauser,  J. E. Herr,  E. G. Hohenstein,  
 Z. C. Holden,  Kerwin Hui,  T.-C. Jagau,  Hyunjun Ji,  B. Kaduk,  
 K. Khistyaev,  Jaehoon Kim,  P. Klunzinger,  K. Koh,  D. Kosenkov,  
 T. Kowalczyk,  C. M. Krauter,  A. Kunitsa,  Ka Un Lao,  A. Laurent,  
 K. V. Lawler,  Joonho Lee,  D. Lefrancois,  S. Lehtola,  D. S. Levine,  
 Yi-Pei Li,  You-Sheng Lin,  Fenglai Liu,  E. Livshits,  A. Luenser,  
 P. Manohar,  E. Mansoor,  S. F. Manzer,  Shan-Ping Mao,  Yuezhi Mao,  
 N. Mardirossian,  A. V. Marenich,  L. A. Martinez-Martinez,  S. A. Maurer,  
 N. J. Mayhall,  S. C. McKenzie,  J.-M. Mewes,  A. F. Morrison,  K. Nanda,  
 T. S. Nguyen-Beck,  R. Olivares-Amaya,  J. A. Parkhill,  T. M. Perrine,  
 F. Plasser,  S. Prager,  A. Prociuk,  D. R. Rehn,  F. Rob,  M. Schneider,  
 N. Sergueev,  S. M. Sharada,  S. Sharma,  D. W. Small,  T. Stauch,  
 T. Stein,  Yu-Chuan Su,  A. J. W. Thom,  T. Tsuchimochi,  L. Vogt,  
 O. Vydrov,  M. A. Watson,  J. Wenzel,  M. de Wergifosse,  T. A. Wesolowski,  
 A. White,  J. Witte,  A. Yamada,  Jun Yang,  K. Yao,  S. Yeganeh,  
 S. R. Yost,  Zhi-Qiang You,  A. Zech,  Igor Ying Zhang,  Xing Zhang,  
 Yan Zhao,  Ying Zhu,  B. R. Brooks,  G. K. L. Chan,  C. J. Cramer,  
 M. S. Gordon,  W. J. Hehre,  A. Klamt,  M. W. Schmidt,  C. D. Sherrill,  
 D. G. Truhlar,  A. Aspuru-Guzik,  R. Baer,  A. T. Bell,  N. A. Besley,  
 Jeng-Da Chai,  A. Dreuw,  B. D. Dunietz,  T. R. Furlani,  Chao-Ping Hsu,  
 Yousung Jung,  Jing Kong,  D. S. Lambrecht,  WanZhen Liang,  C. Ochsenfeld,  
 V. A. Rassolov,  L. V. Slipchenko,  J. E. Subotnik,  T. Van Voorhis,  
 J. M. Herbert,  A. I. Krylov,  P. M. W. Gill,  M. Head-Gordon

 Contributors to earlier versions of Q-Chem not listed above: 
 R. D. Adamson,  B. Austin,  J. Baker,  G. J. O. Beran,  K. Brandhorst,  
 S. T. Brown,  E. F. C. Byrd,  A. K. Chakraborty,  C.-L. Cheng,  
 Siu Hung Chien,  D. M. Chipman,  D. L. Crittenden,  H. Dachsel,  
 R. A. DiStasio Jr.,  R. J. Doerksen,  A. D. Dutoi,  L. Fusti-Molnar,  
 W. A. Goddard III,  A. Golubeva-Zadorozhnaya,  S. R. Gwaltney,  G. Hawkins,  
 A. Heyden,  S. Hirata,  G. Kedziora,  F. J. Keil,  C. Kelley,  Jihan Kim,  
 R. A. King,  R. Z. Khaliullin,  P. P. Korambath,  W. Kurlancheek,  
 A. M. Lee,  M. S. Lee,  S. V. Levchenko,  Ching Yeh Lin,  D. Liotard,  
 R. C. Lochan,  I. Lotan,  P. E. Maslen,  N. Nair,  D. P. O'Neill,  
 D. Neuhauser,  E. Neuscamman,  C. M. Oana,  R. Olson,  B. Peters,  
 R. Peverati,  P. A. Pieniazek,  Y. M. Rhee,  J. Ritchie,  M. A. Rohrdanz,  
 E. Rosta,  N. J. Russ,  H. F. Schaefer III,  N. E. Schultz,  N. Shenvi,  
 A. C. Simmonett,  A. Sodt,  D. Stuck,  K. S. Thanthiriwatte,  V. Vanovschi,  
 Tao Wang,  A. Warshel,  C. F. Williams,  Q. Wu,  X. Xu,  W. Zhang

 Please cite Q-Chem as follows:
 Y. Shao et al., Mol. Phys. 113, 184-215 (2015)
 DOI: 10.1080/00268976.2014.952696

 Q-Chem 5.0.1 for Intel X86 EM64T Linux

 Parts of Q-Chem use Armadillo 5.200.1 (Boston Tea Smuggler).
 http://arma.sourceforge.net/

 Q-Chem begins on Fri Nov  5 14:57:18 2021  

Host: 
0

     Scratch files written to /lscratch/ccprak10/gs_631ppGss_393345.Meister/qchem56723//
 
>>> fanoman::qchem_input_parser: Checking options in input section $fano_pump
 ------------------------------------------------------------
 
>>> fanoman::qchem_input_parser: Checking options in input section $fano_probe
 ------------------------------------------------------------

Checking the input file for inconsistencies... 	...done.

--------------------------------------------------------------
User input:
--------------------------------------------------------------
$molecule
	0 1
	C    -1.1323119    0.7070367    0.0000000 
	C    -1.1382271   -0.6974793    0.0000000 
	N    -0.0060276   -1.4310380    0.0000000 
	C     1.1322998   -0.7070499    0.0000000 
	C     1.1382132    0.6974788    0.0000000 
	N     0.0060267    1.4310301    0.0000000 
	H    -2.0739153    1.2686307    0.0000000 
	H    -2.0845207   -1.2511217    0.0000000 
	H     2.0739369   -1.2685931    0.0000000 
	H     2.0845260    1.2511057    0.0000000 
$end

$rem
	JOBTYPE         SP
	METHOD          FANO
	basis GEN
	PURECART 2
	cc_symmetry false
	mem_total 100000
	threads 12
	!QSYS wt=12:00:00
	!QSYS mem=115gb
	!QSYS vmem=115gb
	!ADC_PRINT       6
	!FANO_PRINT      3
$end

$fano_pump
	METHOD                   ADC(2)
	EE_SINGLETS              20 
	ADC_DAVIDSON_MAXITER     150
$end

$fano_probe
	METHOD                   CVS-ADC(2)-x
	CC_REST_OCC              6
	EE_SINGLETS              20
	ADC_DAVIDSON_MAXITER     150
$end

$basis
!631++G** from BSE
H     0
S   3   1.00
      0.1873113696D+02       0.3349460434D-01
      0.2825394365D+01       0.2347269535D+00
      0.6401216923D+00       0.8137573261D+00
S   1   1.00
      0.1612777588D+00       1.0000000
S   1   1.00
      0.3600000000D-01       0.1000000000D+01
P   1   1.00
      0.1100000000D+01       1.0000000
****
C     0
S   6   1.00
      0.3047524880D+04       0.1834737132D-02
      0.4573695180D+03       0.1403732281D-01
      0.1039486850D+03       0.6884262226D-01
      0.2921015530D+02       0.2321844432D+00
      0.9286662960D+01       0.4679413484D+00
      0.3163926960D+01       0.3623119853D+00
SP   3   1.00
      0.7868272350D+01      -0.1193324198D+00       0.6899906659D-01
      0.1881288540D+01      -0.1608541517D+00       0.3164239610D+00
      0.5442492580D+00       0.1143456438D+01       0.7443082909D+00
SP   1   1.00
      0.1687144782D+00       0.1000000000D+01       0.1000000000D+01
SP   1   1.00
      0.4380000000D-01       0.1000000000D+01       0.1000000000D+01
D   1   1.00
      0.8000000000D+00       1.0000000
****
N     0
S   6   1.00
      0.4173511460D+04       0.1834772160D-02
      0.6274579110D+03       0.1399462700D-01
      0.1429020930D+03       0.6858655181D-01
      0.4023432930D+02       0.2322408730D+00
      0.1282021290D+02       0.4690699481D+00
      0.4390437010D+01       0.3604551991D+00
SP   3   1.00
      0.1162636186D+02      -0.1149611817D+00       0.6757974388D-01
      0.2716279807D+01      -0.1691174786D+00       0.3239072959D+00
      0.7722183966D+00       0.1145851947D+01       0.7408951398D+00
SP   1   1.00
      0.2120314975D+00       0.1000000000D+01       0.1000000000D+01
SP   1   1.00
      0.6390000000D-01       0.1000000000D+01       0.1000000000D+01
D   1   1.00
      0.8000000000D+00       1.0000000
****
$end
--------------------------------------------------------------
 ----------------------------------------------------------------
             Standard Nuclear Orientation (Angstroms)
    I     Atom           X                Y                Z
 ----------------------------------------------------------------
    1      C       1.1352764551    -0.7022642708    -0.0000000000
    2      C       1.1352762355     0.7022641852     0.0000000000
    3      N      -0.0000027348     1.4310479211     0.0000000000
    4      C      -1.1352708351     0.7022719755     0.0000000000
    5      C      -1.1352687621    -0.7022691729    -0.0000000000
    6      N      -0.0000028228    -1.4310455636    -0.0000000000
    7      H       2.0792367561    -1.2598875610    -0.0000000000
    8      H       2.0792296800     1.2598871575     0.0000000000
    9      H      -2.0792646219     1.2598443242     0.0000000000
   10      H      -2.0792414717    -1.2598767261    -0.0000000000
 ----------------------------------------------------------------
 Molecular Point Group                 Cs    NOp =  2
 Largest Abelian Subgroup              Cs    NOp =  2
 Nuclear Repulsion Energy =   206.9583460421 hartrees
 There are       21 alpha and       21 beta electrons
 Requested basis set is non-standard
 There are 46 shells and 138 basis functions

 Total QAlloc Memory Limit 100000 MB
 Mega-Array Size        61 MB
 MEM_STATIC part        62 MB

                       Distance Matrix (Angstroms)
             C (  1)   C (  2)   N (  3)   C (  4)   C (  5)   N (  6)
   C (  2)  1.404528
   N (  3)  2.416584  1.349068
   C (  4)  2.669852  2.270547  1.349054
   C (  5)  2.270545  2.669848  2.416582  1.404541
   N (  6)  1.349067  2.416582  2.862093  2.416584  1.349053
   H (  7)  1.096360  2.177407  3.400643  3.766050  3.262512  2.086272
   H (  8)  2.177403  1.096354  2.086265  3.262506  3.766040  3.400636
   H (  9)  3.766052  3.262540  2.086298  1.096363  2.177388  3.400620
   H ( 10)  3.262523  3.766048  3.400634  2.177409  1.096362  2.086272
             H (  7)   H (  8)   H (  9)
   H (  8)  2.519775
   H (  9)  4.862323  4.158494
   H ( 10)  4.158478  4.862313  2.519721
 
 A cutoff of  1.0D-11 yielded   1042 shell pairs
 There are      9690 function pairs
 
 -------------------------------------------------------
 OpenMP Integral Computing Module                       
 Release: version 1.0, May 2013, Q-Chem Inc. Pittsburgh 
 -------------------------------------------------------
 Integral Job Info:
 Integral job number is                      11
 Integral operator is                         1
 short-range coefficients                     0
 long-range coefficients              100000000
 Omega coefficients                           0
 if combine SR and LR in K                    0
 Integral screening is                        0
 Integral computing path is                   2
 max size of driver memory is            800000
 size of driver memory is                593474
 size of scratch memory is              2361544
 max col of scratch BK array               1296
 max len of scratch array in speh3          155
 max len of scratch index in speh4           18
 max int batch size is                      520
 min int batch size is                       52
 fixed nKL is                                52
 max L of basis functions is                  2
 order of int derivative is                   0
 number of shells is                         46
 number of basis is                         138
 number of cartesian basis is               138
 number of contracted shell pairs          1042
 number of primitive shell pairs           3406
 maxK2 (contraction) of shell pair           36
 max number of K2 of shell pair               1
 max number of CS2 of shell pair            104
 max number of PS2 of shell pair            564
 mem total for path MDJ                   28696
 -------------------------------------------------------
 Smallest overlap matrix eigenvalue = 2.62E-05

 Scale SEOQF with 1.000000e-01/1.000000e-01/1.000000e-01

 Standard Electronic Orientation quadrupole field applied
 Nucleus-field energy     =     0.0000000051 hartrees
 Guess MOs from core Hamiltonian diagonalization
 A restricted Hartree-Fock SCF calculation will be
 performed using Pulay DIIS extrapolation
 SCF converges when DIIS error is below 1.0E-08
 using 12 threads for integral computing
 -------------------------------------------------------
 OpenMP Integral computing Module                
 Release: version 1.0, May 2013, Q-Chem Inc. Pittsburgh 
 -------------------------------------------------------
 ---------------------------------------
  Cycle       Energy         DIIS Error
 ---------------------------------------
    1    -224.6887958395      9.95E-02
    2    -207.8595518566      7.39E-02
    3    -258.7828462445      3.76E-02
    4    -261.8177998249      1.72E-02
    5    -262.6552919454      3.06E-03
    6    -262.6840113904      1.55E-03
    7    -262.6910568322      2.49E-04
    8    -262.6913487794      8.16E-05
    9    -262.6913968275      1.77E-05
   10    -262.6913989522      3.80E-06
   11    -262.6913990085      1.59E-06
   12    -262.6913990163      2.60E-07
   13    -262.6913990168      6.36E-08
   14    -262.6913990168      1.13E-08
   15    -262.6913990169      5.27E-09 Convergence criterion met
 ---------------------------------------
 SCF time:  CPU 13.75 s  wall 1.21 s
 SCF   energy in the final basis set = -262.69139902
 Total energy in the final basis set = -262.69139902
--------------------------------------------------------------------------------
 >>> This is fanoman. <<<
--------------------------------------------------------------------------------
********************************************************************************
 FANOMAN: Performing probe state ADC calculation.
********************************************************************************
================================================================================
|                                                                              |
|                                 A D C  M A N                                 |
|                                                                              |
 ------------------------------------------------------------------------------ 
|                                                                              |
| Components:                                                                  |
|                                                                              |
| - libvmm - 1.3-trunk                                                         |
|   Authors:                                                                   |
|   Evgeny Epifanovsky, Ilya Kaliman                                           |
|                                                                              |
| - libtensor - 2.5-trunk                                                      |
|   Authors:                                                                   |
|   Evgeny Epifanovsky, Michael Wormit, Dmitry Zuev, Sam Manzer,               |
|   Ilya Kaliman                                                               |
|                                                                              |
| - libwfa - 1.1-beta                                                          |
|   Authors:                                                                   |
|   Felix Plasser, Stefanie Baeppler, Benjamin Thomitzni, Michael Wormit       |
|                                                                              |
| - libadc - 1.0-beta                                                          |
|   Authors:                                                                   |
|   Michael Wormit, Philipp H. P. Harbach, Caroline Krauter, Dirk Rehn,        |
|   Matthias Schneider, Jan Wenzel                                             |
|                                                                              |
| - adcman - 2.5-core_valence                                                  |
|   Authors:                                                                   |
|   Michael Wormit, Philipp H. P. Harbach, Caroline Krauter, Dirk Rehn,        |
|   Jan Wenzel, Jan-Michael Mewes, Daniel Lefrancois, Andreas Dreuw            |
|                                                                              |
| Authors of earlier versions of ADCMAN:                                       |
| Andreas Dreuw, Jan Hendrik Starcke, Dirk Rehn, Michael Wormit                |
|                                                                              |
================================================================================


--------------------------------------------------------------------------------
                                   HF Summary                                   
--------------------------------------------------------------------------------
  Energy:                                                 -262.6913990169 a.u.
  Dip. moment [a.u.]:                  [   0.000020,    0.000005,    0.000000]
  Total dipole [Debye]:                                         0.000051439984
  <r^2> [a.u.]:                        [ 191.871149,  198.982001,   27.788657]
  Total <r^2> [a.u.]:                                         418.641806940390
--------------------------------------------------------------------------------

--------------------------------------------------------------------------------
                                 MP(2) Summary                                  
--------------------------------------------------------------------------------
  MP energy contribution:                                   -0.8877699947 a.u.
  Total energy:                                           -263.5791690116 a.u.
  Dip. moment [a.u.]:                  [   0.000008,    0.000005,    0.000000]
  Total dipole [Debye]:                                         0.000023359592
  <r^2> [a.u.]:                        [ 192.180858,  198.783936,   27.407456]
  Total <r^2> [a.u.]:                                         418.372249246523
--------------------------------------------------------------------------------
  Starting Davidson ... 
--------------------------------------------------------------------------------
   It NVec Conv  Avg. Norm  Max. Norm  Conv. states           Remark
--------------------------------------------------------------------------------
        20    0  2.260e-01  1.053e+00 11.0981 n n n n n n n n Guess.
    1   40    0  1.220e-01  9.353e-01 10.6247 n n n n n n n n 
    2   60    0  3.598e-02  2.848e-01 10.5513 n n n n n n n n 
    3   80    0  1.316e-02  8.405e-02 10.5431 n n n n n n n n 
    4  100    0  1.020e-02  6.158e-02 10.5406 n n n n n n n n 
    5   40    0  5.404e-03  3.413e-02 10.5399 n n n n n n n n Subspace collapsed.
    6   60    0  6.498e-03  4.843e-02 10.5396 n n n n n n n n 
    7   80    0  4.064e-03  3.104e-02 10.5394 n n n n n n n n 
    8  100    0  2.349e-03  2.251e-02 10.5394 n n n n n n n n 
    9   40    0  1.596e-03  1.594e-02 10.5394 n n n n n n n n Subspace collapsed.
   10   60    0  2.375e-03  2.622e-02 10.5394 n n n n n n n n 
   11   80    0  2.010e-03  2.057e-02 10.5394 n n n n n n n n 
   12  100    0  2.218e-03  2.097e-02 10.5394 n n n n n n n n 
   13   40    0  1.120e-03  1.212e-02 10.5394 n n n n n n n n Subspace collapsed.
   14   60    0  1.296e-03  1.512e-02 10.5394 n n n n n n n n 
   15   80    0  9.280e-04  1.071e-02 10.5394 n n n n n n n n 
   16  100    0  9.581e-04  1.100e-02 10.5394 n n n n n n n n 
   17   40    0  5.913e-04  6.616e-03 10.5394 n n n n n n n n Subspace collapsed.
   18   60    0  7.242e-04  8.509e-03 10.5394 n n n n n n n n 
   19   80    0  6.994e-04  8.061e-03 10.5394 n n n n n n n n 
   20  100    0  1.098e-03  1.201e-02 10.5394 n n n n n n n n 
   21   40    0  5.033e-04  5.788e-03 10.5394 n n n n n n n n Subspace collapsed.
   22   60    0  4.767e-04  5.593e-03 10.5394 n n n n n n n n 
   23   80    0  3.860e-04  4.545e-03 10.5394 n n n n n n n n 
   24  100    0  5.140e-04  6.193e-03 10.5394 n n n n n n n n 
   25   40    8  3.072e-04  3.514e-03 10.5394 y y y y y y y y Subspace collapsed.
   26   60    8  3.600e-04  4.196e-03 10.5394 y y y y y y y y 
   27   80    8  3.576e-04  4.147e-03 10.5394 y y y y y y y y 
   28  100    8  6.098e-04  6.946e-03 10.5394 y y y y y y y y 
   29   40    8  2.825e-04  3.291e-03 10.5394 y y y y y y y y Subspace collapsed.
   30   60    8  2.630e-04  3.120e-03 10.5394 y y y y y y y y 
   31   80    8  2.108e-04  2.489e-03 10.5394 y y y y y y y y 
   32  100    8  2.916e-04  3.572e-03 10.5394 y y y y y y y y 
   33   40    8  1.788e-04  2.076e-03 10.5394 y y y y y y y y Subspace collapsed.
   34   60    8  2.146e-04  2.561e-03 10.5394 y y y y y y y y 
   35   80    8  2.107e-04  2.489e-03 10.5394 y y y y y y y y 
   36  100    8  3.596e-04  4.226e-03 10.5394 y y y y y y y y 
   37   40    8  1.708e-04  2.028e-03 10.5394 y y y y y y y y Subspace collapsed.
   38   60    8  1.618e-04  1.964e-03 10.5394 y y y y y y y y 
   39   80    8  1.260e-04  1.512e-03 10.5394 y y y y y y y y 
   40  100    8  1.739e-04  2.163e-03 10.5394 y y y y y y y y 
   41   40    8  1.089e-04  1.288e-03 10.5394 y y y y y y y y Subspace collapsed.
   42   60    8  1.348e-04  1.648e-03 10.5394 y y y y y y y y 
   43   80    8  1.295e-04  1.561e-03 10.5394 y y y y y y y y 
   44  100    8  2.190e-04  2.638e-03 10.5394 y y y y y y y y 
   45   40    8  1.065e-04  1.291e-03 10.5394 y y y y y y y y Subspace collapsed.
   46   60    8  1.035e-04  1.285e-03 10.5394 y y y y y y y y 
   47   80    8  7.771e-05  9.508e-04 10.5394 y y y y y y y y 
   48  100    8  1.063e-04  1.343e-03 10.5394 y y y y y y y y 
   49   40    8  6.790e-05  8.194e-04 10.5394 y y y y y y y y Subspace collapsed.
   50   60    8  8.740e-05  1.093e-03 10.5394 y y y y y y y y 
   51   80    8  8.112e-05  9.993e-04 10.5394 y y y y y y y y 
   52  100    8  1.350e-04  1.656e-03 10.5394 y y y y y y y y 
   53   40    8  6.755e-05  8.378e-04 10.5394 y y y y y y y y Subspace collapsed.
   54   60    8  6.804e-05  8.634e-04 10.5394 y y y y y y y y 
   55   64    8  6.804e-05  8.634e-04 10.5394 y y y y y y y y 
   56   80   10  4.897e-05  6.112e-04 10.5394 y y y y y y y y 
   57   96   10  6.570e-05  8.418e-04 10.5394 y y y y y y y y 
   58  100   10  9.612e-03  9.763e-02 10.5394 y y y y y y y y 
   59   32   12  4.968e-03  5.658e-02 10.5394 y y y y y y y y Subspace collapsed.
   60   44   12  3.734e-03  4.026e-02 10.5394 y y y y y y y y 
   61   56   12  1.420e-03  1.464e-02 10.5394 y y y y y y y y 
   62   68   12  1.476e-03  1.790e-02 10.5394 y y y y y y y y 
   63   80   12  9.278e-04  1.174e-02 10.5394 y y y y y y y y 
   64   92   12  6.728e-04  9.208e-03 10.5394 y y y y y y y y 
   65  100   12  3.983e-04  5.425e-03 10.5394 y y y y y y y y 
   66   32   12  1.546e-04  1.977e-03 10.5394 y y y y y y y y Subspace collapsed.
   67   44   12  1.154e-04  1.205e-03 10.5394 y y y y y y y y 
   68   56   12  8.440e-05  9.015e-04 10.5394 y y y y y y y y 
   69   68   12  5.810e-05  7.057e-04 10.5394 y y y y y y y y 
   70   80   12  5.411e-05  6.609e-04 10.5394 y y y y y y y y 
   71   92   12  4.815e-05  5.277e-04 10.5394 y y y y y y y y 
   72  100   12  3.363e-05  3.409e-04 10.5394 y y y y y y y y 
   73   32   14  2.381e-05  2.528e-04 10.5394 y y y y y y y y Subspace collapsed.
   74   44   14  2.376e-05  2.640e-04 10.5394 y y y y y y y y 
   75   56   14  1.936e-05  2.149e-04 10.5394 y y y y y y y y 
   76   68   16  1.847e-05  2.017e-04 10.5394 y y y y y y y y 
   77   80   16  1.721e-05  1.836e-04 10.5394 y y y y y y y y 
   78   92   16  1.461e-05  1.646e-04 10.5394 y y y y y y y y 
   79  100   16  1.279e-05  1.309e-04 10.5394 y y y y y y y y 
   80   32   16  8.329e-06  8.893e-05 10.5394 y y y y y y y y Subspace collapsed.
   81   44   16  9.053e-06  9.866e-05 10.5394 y y y y y y y y 
   82   56   16  7.531e-06  8.574e-05 10.5394 y y y y y y y y 
   83   68   16  6.333e-06  7.131e-05 10.5394 y y y y y y y y 
   84   80   16  5.283e-06  5.853e-05 10.5394 y y y y y y y y 
   85   92   16  4.642e-06  5.137e-05 10.5394 y y y y y y y y 
   86  100   16  4.812e-06  5.443e-05 10.5394 y y y y y y y y 
   87   32   16  3.124e-06  3.559e-05 10.5394 y y y y y y y y Subspace collapsed.
   88   43   16  3.269e-06  3.774e-05 10.5394 y y y y y y y y 
   89   53   16  3.270e-06  3.841e-05 10.5394 y y y y y y y y 
   90   63   16  3.149e-06  3.748e-05 10.5394 y y y y y y y y 
   91   73   16  2.802e-06  3.237e-05 10.5394 y y y y y y y y 
   92   83   16  2.485e-06  3.032e-05 10.5394 y y y y y y y y 
   93   91   16  2.848e-06  3.698e-05 10.5394 y y y y y y y y 
   94   99   16  2.772e-06  3.310e-05 10.5394 y y y y y y y y 
   95  100   16  2.618e-06  3.304e-05 10.5394 y y y y y y y y 
   96   28   16  1.299e-06  1.653e-05 10.5394 y y y y y y y y Subspace collapsed.
   97   36   16  1.066e-06  1.391e-05 10.5394 y y y y y y y y 
   98   44   16  9.193e-07  1.175e-05 10.5394 y y y y y y y y 
   99   52   16  7.595e-07  9.698e-06 10.5394 y y y y y y y y 
  100   60   16  6.933e-07  9.033e-06 10.5394 y y y y y y y y 
  101   68   16  5.852e-07  7.670e-06 10.5394 y y y y y y y y 
  102   76   16  4.618e-07  6.478e-06 10.5394 y y y y y y y y 
  103   84   16  4.841e-07  6.370e-06 10.5394 y y y y y y y y 
  104   92   16  5.058e-07  6.621e-06 10.5394 y y y y y y y y 
  105  100   16  4.167e-07  5.774e-06 10.5394 y y y y y y y y 
  106   28   17  2.742e-07  3.783e-06 10.5394 y y y y y y y y Subspace collapsed.
  107   36   17  2.451e-07  3.426e-06 10.5394 y y y y y y y y 
  108   44   17  2.132e-07  2.945e-06 10.5394 y y y y y y y y 
  109   52   17  2.216e-07  3.021e-06 10.5394 y y y y y y y y 
  110   60   18  2.044e-07  2.774e-06 10.5394 y y y y y y y y 
  111   68   17  1.871e-07  2.479e-06 10.5394 y y y y y y y y 
  112   76   17  1.866e-07  2.536e-06 10.5394 y y y y y y y y 
  113   84   18  1.666e-07  2.381e-06 10.5394 y y y y y y y y 
  114   92   18  1.395e-07  1.899e-06 10.5394 y y y y y y y y 
  115  100   18  1.599e-07  2.166e-06 10.5394 y y y y y y y y 
  116   28   18  9.057e-08  1.252e-06 10.5394 y y y y y y y y Subspace collapsed.
  117   36   18  8.956e-08  1.254e-06 10.5394 y y y y y y y y 
  118   44   18  7.949e-08  1.092e-06 10.5394 y y y y y y y y 
  119   52   20  6.370e-08  8.694e-07 10.5394 y y y y y y y y Converged.
--------------------------------------------------------------------------------
  Davidson Summary: 
 ------------------------------------------------------------
  State  0: excitation energy =  10.5394 a.u.   (converged)
  State  1: excitation energy =  10.5394 a.u.   (converged)
  State  2: excitation energy =  10.5404 a.u.   (converged)
  State  3: excitation energy =  10.5405 a.u.   (converged)
  State  4: excitation energy =  10.5732 a.u.   (converged)
  State  5: excitation energy =  10.5732 a.u.   (converged)
  State  6: excitation energy =  10.5736 a.u.   (converged)
  State  7: excitation energy =  10.5736 a.u.   (converged)
  State  8: excitation energy =  10.6411 a.u.   (converged)
  State  9: excitation energy =  10.6411 a.u.   (converged)
  State 10: excitation energy =  10.6423 a.u.   (converged)
  State 11: excitation energy =  10.6424 a.u.   (converged)
  State 12: excitation energy =  10.6736 a.u.   (converged)
  State 13: excitation energy =  10.6736 a.u.   (converged)
  State 14: excitation energy =  10.6748 a.u.   (converged)
  State 15: excitation energy =  10.6748 a.u.   (converged)
  State 16: excitation energy =  10.6858 a.u.   (converged)
  State 17: excitation energy =  10.6858 a.u.   (converged)
  State 18: excitation energy =  10.6868 a.u.   (converged)
  State 19: excitation energy =  10.6868 a.u.   (converged)
 ------------------------------------------------------------


--------------------------------------------------------------------------------
                             Excited State Summary
--------------------------------------------------------------------------------
--------------------------------------------------------------------------------

  Excited state  1 (singlet, A)                                    [converged]
  ----------------------------------------------------------------------------
  Term symbol:  2 (1) A                                     R^2 =  2.42183e-11

  Total energy:                                           -253.0397768587 a.u.
  Excitation energy:                                             286.791446 eV

  Osc. strength:                                                0.000000003661
  Trans. dip. moment [a.u.]:           [  -0.000000,   -0.000000,   -0.000023]
  <i|r^2|0> [a.u.]:                    [  -0.000000,    0.000000,    0.000000]


  V1^2 = 0.7535, V2^2 = 0.2465

  Important amplitudes:
     core i     occ j       vir a       vir b          v   
    --------------------------------------------------------
     6 (A) A               25 (A) A                  0.4690
     4 (A) A               27 (A) A                 -0.2653
    --------------------------------------------------------
  ----------------------------------------------------------------------------


  Excited state  2 (singlet, A)                                    [converged]
  ----------------------------------------------------------------------------
  Term symbol:  3 (1) A                                     R^2 =  2.38079e-11

  Total energy:                                           -253.0397274410 a.u.
  Excitation energy:                                             286.792791 eV

  Osc. strength:                                                0.000000000097
  Trans. dip. moment [a.u.]:           [  -0.000000,   -0.000000,   -0.000004]
  <i|r^2|0> [a.u.]:                    [  -0.000000,    0.000000,   -0.000000]


  V1^2 = 0.7534, V2^2 = 0.2466

  Important amplitudes:
     core i     occ j       vir a       vir b          v   
    --------------------------------------------------------
     5 (A) A               25 (A) A                  0.4693
     3 (A) A               27 (A) A                 -0.2647
    --------------------------------------------------------
  ----------------------------------------------------------------------------


  Excited state  3 (singlet, A)                                    [converged]
  ----------------------------------------------------------------------------
  Term symbol:  4 (1) A                                     R^2 =  2.45035e-11

  Total energy:                                           -253.0387708773 a.u.
  Excitation energy:                                             286.818820 eV

  Osc. strength:                                                0.000004024625
  Trans. dip. moment [a.u.]:           [   0.000000,    0.000000,    0.000757]
  <i|r^2|0> [a.u.]:                    [   0.000000,   -0.000000,   -0.000000]


  V1^2 = 0.7542, V2^2 = 0.2458

  Important amplitudes:
     core i     occ j       vir a       vir b          v   
    --------------------------------------------------------
     3 (A) A               25 (A) A                 -0.4630
     5 (A) A               27 (A) A                  0.2771
    --------------------------------------------------------
  ----------------------------------------------------------------------------


  Excited state  4 (singlet, A)                                    [converged]
  ----------------------------------------------------------------------------
  Term symbol:  5 (1) A                                     R^2 =  2.43090e-11

  Total energy:                                           -253.0386370298 a.u.
  Excitation energy:                                             286.822462 eV

  Osc. strength:                                                0.122643552355
  Trans. dip. moment [a.u.]:           [   0.000000,   -0.000000,   -0.132110]
  <i|r^2|0> [a.u.]:                    [  -0.000000,   -0.000000,    0.000000]


  V1^2 = 0.7539, V2^2 = 0.2461

  Important amplitudes:
     core i     occ j       vir a       vir b          v   
    --------------------------------------------------------
     4 (A) A               25 (A) A                  0.4643
     6 (A) A               27 (A) A                 -0.2753
    --------------------------------------------------------
  ----------------------------------------------------------------------------


  Excited state  5 (singlet, A)                                    [converged]
  ----------------------------------------------------------------------------
  Term symbol:  6 (1) A                                     R^2 =  2.65304e-11

  Total energy:                                           -253.0059518278 a.u.
  Excitation energy:                                             287.711872 eV

  Osc. strength:                                                0.000314069113
  Trans. dip. moment [a.u.]:           [  -0.000000,    0.000000,    0.006675]
  <i|r^2|0> [a.u.]:                    [   0.000000,    0.000000,   -0.000000]


  V1^2 = 0.7263, V2^2 = 0.2737

  Important amplitudes:
     core i     occ j       vir a       vir b          v   
    --------------------------------------------------------
     5 (A) A               27 (A) A                 -0.4730
     3 (A) A               25 (A) A                 -0.2863
    --------------------------------------------------------
  ----------------------------------------------------------------------------


  Excited state  6 (singlet, A)                                    [converged]
  ----------------------------------------------------------------------------
  Term symbol:  7 (1) A                                     R^2 =  2.79180e-11

  Total energy:                                           -253.0059328082 a.u.
  Excitation energy:                                             287.712389 eV

  Osc. strength:                                                0.040823933981
  Trans. dip. moment [a.u.]:           [   0.000000,   -0.000000,    0.076103]
  <i|r^2|0> [a.u.]:                    [  -0.000000,    0.000000,    0.000000]


  V1^2 = 0.7264, V2^2 = 0.2736

  Important amplitudes:
     core i     occ j       vir a       vir b          v   
    --------------------------------------------------------
     6 (A) A               27 (A) A                  0.4742
     4 (A) A               25 (A) A                  0.2845
    --------------------------------------------------------
  ----------------------------------------------------------------------------


  Excited state  7 (singlet, A)                                    [converged]
  ----------------------------------------------------------------------------
  Term symbol:  8 (1) A                                     R^2 =  2.72188e-11

  Total energy:                                           -253.0056037397 a.u.
  Excitation energy:                                             287.721344 eV

  Osc. strength:                                                0.000000047874
  Trans. dip. moment [a.u.]:           [   0.000000,   -0.000000,   -0.000082]
  <i|r^2|0> [a.u.]:                    [  -0.000000,    0.000000,    0.000000]


  V1^2 = 0.7270, V2^2 = 0.2730

  Important amplitudes:
     core i     occ j       vir a       vir b          v   
    --------------------------------------------------------
     4 (A) A               27 (A) A                  0.4833
     6 (A) A               25 (A) A                  0.2770
    --------------------------------------------------------
  ----------------------------------------------------------------------------


  Excited state  8 (singlet, A)                                    [converged]
  ----------------------------------------------------------------------------
  Term symbol:  9 (1) A                                     R^2 =  2.78461e-11

  Total energy:                                           -253.0055595267 a.u.
  Excitation energy:                                             287.722547 eV

  Osc. strength:                                                0.000000013674
  Trans. dip. moment [a.u.]:           [  -0.000000,    0.000000,    0.000044]
  <i|r^2|0> [a.u.]:                    [  -0.000000,   -0.000000,   -0.000000]


  V1^2 = 0.7270, V2^2 = 0.2730

  Important amplitudes:
     core i     occ j       vir a       vir b          v   
    --------------------------------------------------------
     3 (A) A               27 (A) A                 -0.4836
     5 (A) A               25 (A) A                 -0.2765
    --------------------------------------------------------
  ----------------------------------------------------------------------------


  Excited state  9 (singlet, A)                                    [converged]
  ----------------------------------------------------------------------------
  Term symbol:  10 (1) A                                    R^2 =  1.68030e-11

  Total energy:                                           -252.9380711177 a.u.
  Excitation energy:                                             289.559000 eV

  Osc. strength:                                                0.000004530960
  Trans. dip. moment [a.u.]:           [  -0.000010,    0.000799,   -0.000000]
  <i|r^2|0> [a.u.]:                    [   0.000033,    0.000013,    0.000002]


  V1^2 = 0.7471, V2^2 = 0.2529

  Important amplitudes:
     core i     occ j       vir a       vir b          v   
    --------------------------------------------------------
     6 (A) A               22 (A) A                 -0.4675
     5 (A) A               23 (A) A                  0.2625
    --------------------------------------------------------
  ----------------------------------------------------------------------------


  Excited state 10 (singlet, A)                                    [converged]
  ----------------------------------------------------------------------------
  Term symbol:  11 (1) A                                    R^2 =  1.68290e-11

  Total energy:                                           -252.9380564659 a.u.
  Excitation energy:                                             289.559399 eV

  Osc. strength:                                                0.005263710201
  Trans. dip. moment [a.u.]:           [   0.000008,    0.027239,   -0.000000]
  <i|r^2|0> [a.u.]:                    [  -0.000044,   -0.000017,   -0.000002]


  V1^2 = 0.7471, V2^2 = 0.2529

  Important amplitudes:
     core i     occ j       vir a       vir b          v   
    --------------------------------------------------------
     5 (A) A               22 (A) A                  0.4675
     6 (A) A               23 (A) A                 -0.2625
    --------------------------------------------------------
  ----------------------------------------------------------------------------


  Excited state 11 (singlet, A)                                    [converged]
  ----------------------------------------------------------------------------
  Term symbol:  12 (1) A                                    R^2 =  1.69167e-11

  Total energy:                                           -252.9368441280 a.u.
  Excitation energy:                                             289.592388 eV

  Osc. strength:                                                0.018929377342
  Trans. dip. moment [a.u.]:           [  -0.051653,    0.000004,   -0.000000]
  <i|r^2|0> [a.u.]:                    [  -0.003510,   -0.001349,   -0.000167]


  V1^2 = 0.7471, V2^2 = 0.2529

  Important amplitudes:
     core i     occ j       vir a       vir b          v   
    --------------------------------------------------------
     3 (A) A               22 (A) A                 -0.4656
     4 (A) A               23 (A) A                  0.2628
    --------------------------------------------------------
  ----------------------------------------------------------------------------


  Excited state 12 (singlet, A)                                    [converged]
  ----------------------------------------------------------------------------
  Term symbol:  13 (1) A                                    R^2 =  1.68929e-11

  Total energy:                                           -252.9368181891 a.u.
  Excitation energy:                                             289.593094 eV

  Osc. strength:                                                0.000004448400
  Trans. dip. moment [a.u.]:           [  -0.000792,    0.000005,   -0.000000]
  <i|r^2|0> [a.u.]:                    [   0.229269,    0.088207,    0.010925]


  V1^2 = 0.7469, V2^2 = 0.2531

  Important amplitudes:
     core i     occ j       vir a       vir b          v   
    --------------------------------------------------------
     4 (A) A               22 (A) A                 -0.4665
     3 (A) A               23 (A) A                  0.2618
    --------------------------------------------------------
  ----------------------------------------------------------------------------


  Excited state 13 (singlet, A)                                    [converged]
  ----------------------------------------------------------------------------
  Term symbol:  14 (1) A                                    R^2 =  4.84611e-11

  Total energy:                                           -252.9055519648 a.u.
  Excitation energy:                                             290.443891 eV

  Osc. strength:                                                0.000186174572
  Trans. dip. moment [a.u.]:           [  -0.000002,    0.005115,    0.000000]
  <i|r^2|0> [a.u.]:                    [   0.000012,    0.000007,    0.000000]


  V1^2 = 0.7284, V2^2 = 0.2716

  Important amplitudes:
     core i     occ j       vir a       vir b          v   
    --------------------------------------------------------
     5 (A) A               23 (A) A                  0.4136
     6 (A) A               28 (A) A                 -0.2502
    --------------------------------------------------------
  ----------------------------------------------------------------------------


  Excited state 14 (singlet, A)                                    [converged]
  ----------------------------------------------------------------------------
  Term symbol:  15 (1) A                                    R^2 =  7.36622e-11

  Total energy:                                           -252.9055494985 a.u.
  Excitation energy:                                             290.443958 eV

  Osc. strength:                                                0.002553294473
  Trans. dip. moment [a.u.]:           [   0.000005,    0.018943,    0.000000]
  <i|r^2|0> [a.u.]:                    [  -0.000016,   -0.000008,   -0.000000]


  V1^2 = 0.7284, V2^2 = 0.2716

  Important amplitudes:
     core i     occ j       vir a       vir b          v   
    --------------------------------------------------------
     6 (A) A               23 (A) A                 -0.4137
     5 (A) A               28 (A) A                  0.2502
    --------------------------------------------------------
  ----------------------------------------------------------------------------


  Excited state 15 (singlet, A)                                    [converged]
  ----------------------------------------------------------------------------
  Term symbol:  16 (1) A                                    R^2 =  2.21783e-10

  Total energy:                                           -252.9043511567 a.u.
  Excitation energy:                                             290.476567 eV

  Osc. strength:                                                0.004605246814
  Trans. dip. moment [a.u.]:           [  -0.025439,    0.000003,    0.000000]
  <i|r^2|0> [a.u.]:                    [  -0.002056,   -0.001067,   -0.000066]


  V1^2 = 0.7282, V2^2 = 0.2718

  Important amplitudes:
     core i     occ j       vir a       vir b          v   
    --------------------------------------------------------
     4 (A) A               23 (A) A                  0.4292
     3 (A) A               28 (A) A                 -0.2548
    --------------------------------------------------------
  ----------------------------------------------------------------------------


  Excited state 16 (singlet, A)                                    [converged]
  ----------------------------------------------------------------------------
  Term symbol:  17 (1) A                                    R^2 =  1.98929e-10

  Total energy:                                           -252.9043199897 a.u.
  Excitation energy:                                             290.477415 eV

  Osc. strength:                                                0.000001678588
  Trans. dip. moment [a.u.]:           [   0.000486,   -0.000002,   -0.000000]
  <i|r^2|0> [a.u.]:                    [  -0.107497,   -0.055934,   -0.003473]


  V1^2 = 0.7283, V2^2 = 0.2717

  Important amplitudes:
     core i     occ j       vir a       vir b          v   
    --------------------------------------------------------
     3 (A) A               23 (A) A                 -0.4296
     4 (A) A               28 (A) A                  0.2553
    --------------------------------------------------------
  ----------------------------------------------------------------------------


  Excited state 17 (singlet, A)                                    [converged]
  ----------------------------------------------------------------------------
  Term symbol:  18 (1) A                                    R^2 =  8.64674e-07

  Total energy:                                           -252.8933653051 a.u.
  Excitation energy:                                             290.775507 eV

  Osc. strength:                                                0.002848107138
  Trans. dip. moment [a.u.]:           [   0.019995,    0.000004,    0.000000]
  <i|r^2|0> [a.u.]:                    [   0.005193,    0.001761,    0.000476]


  V1^2 = 0.7340, V2^2 = 0.2660

  Important amplitudes:
     core i     occ j       vir a       vir b          v   
    --------------------------------------------------------
     6 (A) A               24 (A) A                 -0.4864
     5 (A) A               26 (A) A                  0.2294
    --------------------------------------------------------
  ----------------------------------------------------------------------------


  Excited state 18 (singlet, A)                                    [converged]
  ----------------------------------------------------------------------------
  Term symbol:  19 (1) A                                    R^2 =  8.69356e-07

  Total energy:                                           -252.8933486979 a.u.
  Excitation energy:                                             290.775959 eV

  Osc. strength:                                                0.000009375404
  Trans. dip. moment [a.u.]:           [   0.001147,    0.000003,    0.000000]
  <i|r^2|0> [a.u.]:                    [  -0.090571,   -0.030687,   -0.008295]


  V1^2 = 0.7340, V2^2 = 0.2660

  Important amplitudes:
     core i     occ j       vir a       vir b          v   
    --------------------------------------------------------
     5 (A) A               24 (A) A                 -0.4865
     6 (A) A               26 (A) A                  0.2294
    --------------------------------------------------------
  ----------------------------------------------------------------------------


  Excited state 19 (singlet, A)                                    [converged]
  ----------------------------------------------------------------------------
  Term symbol:  20 (1) A                                    R^2 =  2.81337e-07

  Total energy:                                           -252.8923717321 a.u.
  Excitation energy:                                             290.802543 eV

  Osc. strength:                                                0.000963729410
  Trans. dip. moment [a.u.]:           [  -0.000006,    0.011631,    0.000000]
  <i|r^2|0> [a.u.]:                    [   0.000022,    0.000007,    0.000002]


  V1^2 = 0.7343, V2^2 = 0.2657

  Important amplitudes:
     core i     occ j       vir a       vir b          v   
    --------------------------------------------------------
     4 (A) A               24 (A) A                 -0.4876
     3 (A) A               26 (A) A                  0.2337
    --------------------------------------------------------
  ----------------------------------------------------------------------------


  Excited state 20 (singlet, A)                                    [converged]
  ----------------------------------------------------------------------------
  Term symbol:  21 (1) A                                    R^2 =  2.00766e-07

  Total energy:                                           -252.8923329750 a.u.
  Excitation energy:                                             290.803598 eV

  Osc. strength:                                                0.000000552216
  Trans. dip. moment [a.u.]:           [   0.000005,   -0.000278,    0.000000]
  <i|r^2|0> [a.u.]:                    [  -0.000029,   -0.000010,   -0.000003]


  V1^2 = 0.7343, V2^2 = 0.2657

  Important amplitudes:
     core i     occ j       vir a       vir b          v   
    --------------------------------------------------------
     3 (A) A               24 (A) A                  0.4868
     4 (A) A               26 (A) A                 -0.2350
    --------------------------------------------------------
  ----------------------------------------------------------------------------


--------------------------------------------------------------------------------
  Time of ADC calculation:  CPU 43466.78 s  wall 4635.37 s
================================================================================
********************************************************************************
 FANOMAN: Finished probe state ADC calculation.
********************************************************************************
********************************************************************************
 FANOMAN: Performing pump state ADC calculation.
********************************************************************************
================================================================================
|                                                                              |
|                                 A D C  M A N                                 |
|                                                                              |
 ------------------------------------------------------------------------------ 
|                                                                              |
| Components:                                                                  |
|                                                                              |
| - libvmm - 1.3-trunk                                                         |
|   Authors:                                                                   |
|   Evgeny Epifanovsky, Ilya Kaliman                                           |
|                                                                              |
| - libtensor - 2.5-trunk                                                      |
|   Authors:                                                                   |
|   Evgeny Epifanovsky, Michael Wormit, Dmitry Zuev, Sam Manzer,               |
|   Ilya Kaliman                                                               |
|                                                                              |
| - libwfa - 1.1-beta                                                          |
|   Authors:                                                                   |
|   Felix Plasser, Stefanie Baeppler, Benjamin Thomitzni, Michael Wormit       |
|                                                                              |
| - libadc - 1.0-beta                                                          |
|   Authors:                                                                   |
|   Michael Wormit, Philipp H. P. Harbach, Caroline Krauter, Dirk Rehn,        |
|   Matthias Schneider, Jan Wenzel                                             |
|                                                                              |
| - adcman - 2.5-core_valence                                                  |
|   Authors:                                                                   |
|   Michael Wormit, Philipp H. P. Harbach, Caroline Krauter, Dirk Rehn,        |
|   Jan Wenzel, Jan-Michael Mewes, Daniel Lefrancois, Andreas Dreuw            |
|                                                                              |
| Authors of earlier versions of ADCMAN:                                       |
| Andreas Dreuw, Jan Hendrik Starcke, Dirk Rehn, Michael Wormit                |
|                                                                              |
================================================================================


--------------------------------------------------------------------------------
                                   HF Summary                                   
--------------------------------------------------------------------------------
  Energy:                                                 -262.6913990169 a.u.
  Dip. moment [a.u.]:                  [   0.000020,    0.000005,    0.000000]
  Total dipole [Debye]:                                         0.000051439984
  <r^2> [a.u.]:                        [ 191.871149,  198.982001,   27.788657]
  Total <r^2> [a.u.]:                                         418.641806940390
--------------------------------------------------------------------------------

--------------------------------------------------------------------------------
                                 MP(2) Summary                                  
--------------------------------------------------------------------------------
  MP energy contribution:                                   -0.8877699947 a.u.
  Total energy:                                           -263.5791690116 a.u.
  Dip. moment [a.u.]:                  [   0.000008,    0.000005,    0.000000]
  Total dipole [Debye]:                                         0.000023359592
  <r^2> [a.u.]:                        [ 192.180858,  198.783936,   27.407456]
  Total <r^2> [a.u.]:                                         418.372249246522
--------------------------------------------------------------------------------
  Starting Davidson ... 
--------------------------------------------------------------------------------
   It NVec Conv  Avg. Norm  Max. Norm  Conv. states           Remark
--------------------------------------------------------------------------------
        20    0  1.080e-01  6.385e-01  0.3448 n n n n n n n n Guess.
    1   40    0  3.567e-02  4.280e-01  0.1719 n n n n n n n n 
    2   60    0  1.289e-02  1.733e-01  0.1604 n n n n n n n n 
    3   80    0  8.555e-03  1.139e-01  0.1590 n n n n n n n n 
    4  100    0  4.107e-03  5.169e-02  0.1587 n n n n n n n n 
    5   40    0  2.575e-03  2.596e-02  0.1587 n n n n n n n n Subspace collapsed.
    6   60    0  7.337e-03  1.397e-01  0.1586 n n n n n n n n 
    7   80    0  9.670e-03  1.764e-01  0.1586 n n n n n n n n 
    8  100    0  5.832e-03  9.267e-02  0.1586 n n n n n n n n 
    9   40    0  2.960e-03  4.131e-02  0.1586 n n n n n n n n Subspace collapsed.
   10   60    0  1.983e-03  2.608e-02  0.1586 n n n n n n n n 
   11   80    0  9.830e-04  1.188e-02  0.1586 n n n n n n n n 
   12  100    0  5.806e-04  7.034e-03  0.1586 n n n n n n n n 
   13   40    0  4.128e-04  5.588e-03  0.1586 n n n n n n n n Subspace collapsed.
   14   60    1  3.630e-04  4.841e-03  0.1586 n n y n n n n n 
   15   80    2  3.781e-04  6.774e-03  0.1586 y n y n n n n n 
   16  100    3  2.396e-03  4.743e-02  0.1586 y y y n n n n n 
   17   40    3  1.128e-03  2.213e-02  0.1586 y y y n n n n n Subspace collapsed.
   18   60    3  9.845e-04  1.903e-02  0.1586 y y y n n n n n 
   19   80    3  6.829e-04  1.301e-02  0.1586 y y y n n n n n 
   20  100    5  7.895e-04  1.480e-02  0.1586 y y y n n n y n 
   21   40    7  6.565e-04  1.214e-02  0.1586 y y y n y n y y Subspace collapsed.
   22   60    7  9.254e-04  1.646e-02  0.1586 y y y n y n y y 
   23   80   10  1.211e-03  1.797e-02  0.1586 y y y y y n y y 
   24  100   10  1.867e-03  3.464e-02  0.1586 y y y y y n y y 
   25   40   12  9.109e-04  1.768e-02  0.1586 y y y y y y y y Subspace collapsed.
   26   60   12  7.577e-04  1.481e-02  0.1586 y y y y y y y y 
   27   80   12  5.511e-03  1.096e-01  0.1586 y y y y y y y y 
   28  100   12  3.272e-03  6.363e-02  0.1586 y y y y y y y y 
   29   40   12  1.689e-03  3.245e-02  0.1586 y y y y y y y y Subspace collapsed.
   30   60   12  1.199e-03  2.186e-02  0.1586 y y y y y y y y 
   31   80   13  7.431e-04  1.114e-02  0.1586 y y y y y y y y 
   32   99   13  8.411e-04  1.589e-02  0.1586 y y y y y y y y 
   33  100   13  8.509e-04  1.606e-02  0.1586 y y y y y y y y 
   34   38   13  4.257e-04  7.685e-03  0.1586 y y y y y y y y Subspace collapsed.
   35   56   13  3.206e-04  5.847e-03  0.1586 y y y y y y y y 
   36   73   15  2.685e-04  5.196e-03  0.1586 y y y y y y y y 
   37   90   15  4.490e-04  8.917e-03  0.1586 y y y y y y y y 
   38  100   15  2.553e-03  5.105e-02  0.1586 y y y y y y y y 
   39   37   16  8.573e-04  1.714e-02  0.1586 y y y y y y y y Subspace collapsed.
   40   54   16  5.505e-04  1.100e-02  0.1586 y y y y y y y y 
   41   71   16  2.273e-04  4.477e-03  0.1586 y y y y y y y y 
   42   88   16  1.992e-04  3.900e-03  0.1586 y y y y y y y y 
   43  100   16  1.537e-04  2.954e-03  0.1586 y y y y y y y y 
   44   36   16  1.120e-04  2.169e-03  0.1586 y y y y y y y y Subspace collapsed.
   45   51   16  1.173e-04  2.325e-03  0.1586 y y y y y y y y 
   46   55   16  1.173e-04  2.325e-03  0.1586 y y y y y y y y 
   47   58   16  1.174e-04  2.328e-03  0.1586 y y y y y y y y 
   48   61   16  1.174e-04  2.328e-03  0.1586 y y y y y y y y 
   49   73   16  8.655e-05  1.713e-03  0.1586 y y y y y y y y 
   50   73   16  8.655e-05  1.713e-03  0.1586 y y y y y y y y 
   51   93   16  1.281e-04  2.528e-03  0.1586 y y y y y y y y 
   52  100   16  1.133e-04  2.227e-03  0.1586 y y y y y y y y 
   53   30   17  4.332e-05  8.365e-04  0.1586 y y y y y y y y Subspace collapsed.
   54   40   17  4.299e-05  8.145e-04  0.1586 y y y y y y y y 
   55   50   16  3.651e-05  6.318e-04  0.1586 y y y y y y y y 
   56   60   16  3.257e-05  4.784e-04  0.1586 y y y y y y y y 
   57   70   16  3.192e-03  6.383e-02  0.1586 y y y y y y y y 
   58   80   16  1.197e-03  2.394e-02  0.1586 y y y y y y y y 
   59   90   17  7.244e-04  1.448e-02  0.1586 y y y y y y y y 
   60  100   17  4.424e-04  8.844e-03  0.1586 y y y y y y y y 
   61   30   17  2.407e-04  4.812e-03  0.1586 y y y y y y y y Subspace collapsed.
   62   33   17  2.438e-04  4.873e-03  0.1586 y y y y y y y y 
   63   36   17  2.408e-04  4.813e-03  0.1586 y y y y y y y y 
   64   39   17  2.388e-04  4.774e-03  0.1586 y y y y y y y y 
   65   42   17  2.391e-04  4.779e-03  0.1586 y y y y y y y y 
   66   45   17  2.456e-04  4.910e-03  0.1586 y y y y y y y y 
   67   48   17  2.425e-04  4.848e-03  0.1586 y y y y y y y y 
   68   57   17  2.214e-04  4.426e-03  0.1586 y y y y y y y y 
   69   65   17  1.575e-04  3.150e-03  0.1586 y y y y y y y y 
   70   72   17  1.233e-04  2.466e-03  0.1586 y y y y y y y y 
   71   79   17  9.764e-05  1.952e-03  0.1586 y y y y y y y y 
   72   86   17  7.646e-05  1.529e-03  0.1586 y y y y y y y y 
   73   93   17  6.320e-05  1.264e-03  0.1586 y y y y y y y y 
   74  100   17  6.631e-05  1.326e-03  0.1586 y y y y y y y y 
   75   27   17  3.332e-05  6.663e-04  0.1586 y y y y y y y y Subspace collapsed.
   76   34   17  3.453e-05  6.905e-04  0.1586 y y y y y y y y 
   77   40   17  3.138e-05  6.275e-04  0.1586 y y y y y y y y 
   78   45   17  2.824e-05  5.648e-04  0.1586 y y y y y y y y 
   79   50   17  2.154e-05  4.306e-04  0.1586 y y y y y y y y 
   80   55   17  1.988e-05  3.976e-04  0.1586 y y y y y y y y 
   81   60   17  1.602e-05  3.204e-04  0.1586 y y y y y y y y 
   82   65   17  1.090e-05  2.181e-04  0.1586 y y y y y y y y 
   83   70   17  1.160e-05  2.320e-04  0.1586 y y y y y y y y 
   84   75   17  8.346e-06  1.669e-04  0.1586 y y y y y y y y 
   85   80   18  4.836e-06  9.670e-05  0.1586 y y y y y y y y 
   86   81   18  4.804e-06  9.608e-05  0.1586 y y y y y y y y 
   87   82   18  4.805e-06  9.608e-05  0.1586 y y y y y y y y 
   88   83   18  4.804e-06  9.606e-05  0.1586 y y y y y y y y 
   89   84   18  4.802e-06  9.602e-05  0.1586 y y y y y y y y 
   90   85   18  4.793e-06  9.584e-05  0.1586 y y y y y y y y 
   91   90   18  2.857e-06  5.713e-05  0.1586 y y y y y y y y 
   92   91   18  2.839e-06  5.677e-05  0.1586 y y y y y y y y 
   93   94   19  1.854e-06  3.708e-05  0.1586 y y y y y y y y 
   94   97   19  1.245e-06  2.488e-05  0.1586 y y y y y y y y 
   95  100   19  8.674e-07  1.734e-05  0.1586 y y y y y y y y 
   96   23   19  5.516e-07  1.103e-05  0.1586 y y y y y y y y Subspace collapsed.
   97   26   19  6.163e-07  1.232e-05  0.1586 y y y y y y y y 
   98   29   19  5.246e-07  1.049e-05  0.1586 y y y y y y y y 
   99   32   19  4.940e-07  9.878e-06  0.1586 y y y y y y y y 
  100   35   19  4.155e-07  8.307e-06  0.1586 y y y y y y y y 
  101   38   19  3.034e-07  6.065e-06  0.1586 y y y y y y y y 
  102   41   19  2.257e-07  4.511e-06  0.1586 y y y y y y y y 
  103   44   19  1.864e-07  3.725e-06  0.1586 y y y y y y y y 
  104   47   19  1.582e-07  3.163e-06  0.1586 y y y y y y y y 
  105   50   19  1.149e-07  2.296e-06  0.1586 y y y y y y y y 
  106   53   19  8.063e-08  1.611e-06  0.1586 y y y y y y y y 
  107   56   19  6.999e-08  1.399e-06  0.1586 y y y y y y y y 
  108   59   19  6.085e-08  1.216e-06  0.1586 y y y y y y y y 
  109   62   20  4.922e-08  9.835e-07  0.1586 y y y y y y y y Converged.
--------------------------------------------------------------------------------
  Davidson Summary: 
 ------------------------------------------------------------
  State  0: excitation energy =   0.1586 a.u.   (converged)
  State  1: excitation energy =   0.1828 a.u.   (converged)
  State  2: excitation energy =   0.1880 a.u.   (converged)
  State  3: excitation energy =   0.2200 a.u.   (converged)
  State  4: excitation energy =   0.2316 a.u.   (converged)
  State  5: excitation energy =   0.2478 a.u.   (converged)
  State  6: excitation energy =   0.2500 a.u.   (converged)
  State  7: excitation energy =   0.2555 a.u.   (converged)
  State  8: excitation energy =   0.2636 a.u.   (converged)
  State  9: excitation energy =   0.2641 a.u.   (converged)
  State 10: excitation energy =   0.2790 a.u.   (converged)
  State 11: excitation energy =   0.2816 a.u.   (converged)
  State 12: excitation energy =   0.2827 a.u.   (converged)
  State 13: excitation energy =   0.2875 a.u.   (converged)
  State 14: excitation energy =   0.2902 a.u.   (converged)
  State 15: excitation energy =   0.2916 a.u.   (converged)
  State 16: excitation energy =   0.2972 a.u.   (converged)
  State 17: excitation energy =   0.3022 a.u.   (converged)
  State 18: excitation energy =   0.3059 a.u.   (converged)
  State 19: excitation energy =   0.3087 a.u.   (converged)
 ------------------------------------------------------------


--------------------------------------------------------------------------------
                             Excited State Summary
--------------------------------------------------------------------------------
--------------------------------------------------------------------------------

  Excited state  1 (singlet, A)                                    [converged]
  ----------------------------------------------------------------------------
  Term symbol:  2 (1) A                                     R^2 =  1.49266e-13

  Total energy:                                           -263.4205331419 a.u.
  Excitation energy:                                               4.316702 eV

  Osc. strength:                                                0.007181367841
  Trans. dip. moment [a.u.]:           [   0.000000,   -0.000000,    0.260584]
  <i|r^2|0> [a.u.]:                    [  -0.000000,    0.000000,   -0.000000]


  V1^2 = 0.9114, V2^2 = 0.0886

  Important amplitudes:
      occ i      occ j       vir a       vir b          v   
    ---------------------------------------------------------
     20 (A) A               25 (A) A                 -0.6221
     20 (A) A               29 (A) A                 -0.2381
    ---------------------------------------------------------
  ----------------------------------------------------------------------------


  Excited state  2 (singlet, A)                                    [converged]
  ----------------------------------------------------------------------------
  Term symbol:  3 (1) A                                     R^2 =  1.64227e-13

  Total energy:                                           -263.3963314392 a.u.
  Excitation energy:                                               4.975263 eV

  Osc. strength:                                                0.000000000000
  Trans. dip. moment [a.u.]:           [  -0.000000,    0.000000,   -0.000000]
  <i|r^2|0> [a.u.]:                    [  -0.000000,   -0.000000,   -0.000000]


  V1^2 = 0.8966, V2^2 = 0.1034

  Important amplitudes:
      occ i      occ j       vir a       vir b          v   
    ---------------------------------------------------------
     20 (A) A               27 (A) A                  0.6321
     20 (A) A               40 (A) A                 -0.2104
    ---------------------------------------------------------
  ----------------------------------------------------------------------------


  Excited state  3 (singlet, A)                                    [converged]
  ----------------------------------------------------------------------------
  Term symbol:  4 (1) A                                     R^2 =  1.75705e-13

  Total energy:                                           -263.3911401690 a.u.
  Excitation energy:                                               5.116525 eV

  Osc. strength:                                                0.077796456141
  Trans. dip. moment [a.u.]:           [   0.787795,   -0.000002,    0.000000]
  <i|r^2|0> [a.u.]:                    [   0.000034,   -0.000003,   -0.000019]


  V1^2 = 0.9027, V2^2 = 0.0973

  Important amplitudes:
      occ i      occ j       vir a       vir b          v   
    ---------------------------------------------------------
     21 (A) A               25 (A) A                 -0.5750
     19 (A) A               27 (A) A                 -0.2449
    ---------------------------------------------------------
  ----------------------------------------------------------------------------


  Excited state  4 (singlet, A)                                    [converged]
  ----------------------------------------------------------------------------
  Term symbol:  5 (1) A                                     R^2 =  2.86001e-13

  Total energy:                                           -263.3591247024 a.u.
  Excitation energy:                                               5.987710 eV

  Osc. strength:                                                0.000000000000
  Trans. dip. moment [a.u.]:           [   0.000000,   -0.000000,   -0.000001]
  <i|r^2|0> [a.u.]:                    [   0.000000,    0.000000,   -0.000000]


  V1^2 = 0.9040, V2^2 = 0.0960

  Important amplitudes:
      occ i      occ j       vir a       vir b          v   
    ---------------------------------------------------------
     18 (A) A               25 (A) A                 -0.6193
     18 (A) A               29 (A) A                 -0.2365
    ---------------------------------------------------------
  ----------------------------------------------------------------------------


  Excited state  5 (singlet, A)                                    [converged]
  ----------------------------------------------------------------------------
  Term symbol:  6 (1) A                                     R^2 =  1.56204e-13

  Total energy:                                           -263.3475746771 a.u.
  Excitation energy:                                               6.302002 eV

  Osc. strength:                                                0.000000000217
  Trans. dip. moment [a.u.]:           [  -0.000038,    0.000001,   -0.000000]
  <i|r^2|0> [a.u.]:                    [   2.951592,   -1.857319,   -0.344611]


  V1^2 = 0.8917, V2^2 = 0.1083

  Important amplitudes:
      occ i      occ j       vir a       vir b          v   
    ---------------------------------------------------------
     20 (A) A               22 (A) A                  0.6141
     20 (A) A               28 (A) A                 -0.1839
    ---------------------------------------------------------
  ----------------------------------------------------------------------------


  Excited state  6 (singlet, A)                                    [converged]
  ----------------------------------------------------------------------------
  Term symbol:  7 (1) A                                     R^2 =  2.29019e-13

  Total energy:                                           -263.3313453738 a.u.
  Excitation energy:                                               6.743624 eV

  Osc. strength:                                                0.000000000006
  Trans. dip. moment [a.u.]:           [  -0.000000,   -0.000000,    0.000006]
  <i|r^2|0> [a.u.]:                    [  -0.000000,   -0.000000,   -0.000000]


  V1^2 = 0.8755, V2^2 = 0.1245

  Important amplitudes:
      occ i      occ j       vir a       vir b          v   
    ---------------------------------------------------------
     18 (A) A               27 (A) A                  0.6278
     18 (A) A               40 (A) A                 -0.2025
    ---------------------------------------------------------
  ----------------------------------------------------------------------------


  Excited state  7 (singlet, A)                                    [converged]
  ----------------------------------------------------------------------------
  Term symbol:  8 (1) A                                     R^2 =  2.08129e-13

  Total energy:                                           -263.3292087600 a.u.
  Excitation energy:                                               6.801764 eV

  Osc. strength:                                                0.043482737263
  Trans. dip. moment [a.u.]:           [  -0.510821,    0.000003,   -0.000000]
  <i|r^2|0> [a.u.]:                    [   0.000099,    0.000088,    0.000029]


  V1^2 = 0.8865, V2^2 = 0.1135

  Important amplitudes:
      occ i      occ j       vir a       vir b          v   
    ---------------------------------------------------------
     20 (A) A               23 (A) A                 -0.6354
     20 (A) A               36 (A) A                 -0.1733
    ---------------------------------------------------------
  ----------------------------------------------------------------------------


  Excited state  8 (singlet, A)                                    [converged]
  ----------------------------------------------------------------------------
  Term symbol:  9 (1) A                                     R^2 =  1.32320e-13

  Total energy:                                           -263.3236444105 a.u.
  Excitation energy:                                               6.953178 eV

  Osc. strength:                                                0.060030802981
  Trans. dip. moment [a.u.]:           [   0.000005,   -0.593631,    0.000000]
  <i|r^2|0> [a.u.]:                    [  -0.000012,    0.000005,    0.000001]


  V1^2 = 0.9343, V2^2 = 0.0657

  Important amplitudes:
      occ i      occ j       vir a       vir b          v   
    ---------------------------------------------------------
     21 (A) A               27 (A) A                 -0.5501
     19 (A) A               25 (A) A                  0.2693
    ---------------------------------------------------------
  ----------------------------------------------------------------------------


  Excited state  9 (singlet, A)                                    [converged]
  ----------------------------------------------------------------------------
  Term symbol:  10 (1) A                                    R^2 =  3.67905e-13

  Total energy:                                           -263.3155732299 a.u.
  Excitation energy:                                               7.172806 eV

  Osc. strength:                                                0.091358916349
  Trans. dip. moment [a.u.]:           [  -0.000002,   -0.721028,   -0.000000]
  <i|r^2|0> [a.u.]:                    [   0.000003,    0.000010,    0.000001]


  V1^2 = 0.9001, V2^2 = 0.0999

  Important amplitudes:
      occ i      occ j       vir a       vir b          v   
    ---------------------------------------------------------
     20 (A) A               24 (A) A                  0.5768
     21 (A) A               27 (A) A                 -0.2437
    ---------------------------------------------------------
  ----------------------------------------------------------------------------


  Excited state 10 (singlet, A)                                    [converged]
  ----------------------------------------------------------------------------
  Term symbol:  11 (1) A                                    R^2 =  1.35671e-13

  Total energy:                                           -263.3150239695 a.u.
  Excitation energy:                                               7.187752 eV

  Osc. strength:                                                0.000000000005
  Trans. dip. moment [a.u.]:           [   0.000000,   -0.000000,   -0.000005]
  <i|r^2|0> [a.u.]:                    [   0.000000,   -0.000000,    0.000000]


  V1^2 = 0.9382, V2^2 = 0.0618

  Important amplitudes:
      occ i      occ j       vir a       vir b          v   
    ---------------------------------------------------------
     21 (A) A               22 (A) A                 -0.6281
     21 (A) A               28 (A) A                  0.1809
    ---------------------------------------------------------
  ----------------------------------------------------------------------------


  Excited state 11 (singlet, A)                                    [converged]
  ----------------------------------------------------------------------------
  Term symbol:  12 (1) A                                    R^2 =  3.94358e-13

  Total energy:                                           -263.3001268631 a.u.
  Excitation energy:                                               7.593123 eV

  Osc. strength:                                                0.000000000093
  Trans. dip. moment [a.u.]:           [   0.000000,    0.000022,   -0.000000]
  <i|r^2|0> [a.u.]:                    [   0.000086,    0.000064,    0.000018]


  V1^2 = 0.8902, V2^2 = 0.1098

  Important amplitudes:
      occ i      occ j       vir a       vir b          v   
    ---------------------------------------------------------
     20 (A) A               26 (A) A                 -0.6234
     20 (A) A               35 (A) A                 -0.1526
    ---------------------------------------------------------
  ----------------------------------------------------------------------------


  Excited state 12 (singlet, A)                                    [converged]
  ----------------------------------------------------------------------------
  Term symbol:  13 (1) A                                    R^2 =  5.86271e-13

  Total energy:                                           -263.2975801970 a.u.
  Excitation energy:                                               7.662421 eV

  Osc. strength:                                                0.000000000020
  Trans. dip. moment [a.u.]:           [   0.000010,    0.000003,   -0.000000]
  <i|r^2|0> [a.u.]:                    [   1.992857,    1.173227,    0.497614]


  V1^2 = 0.8920, V2^2 = 0.1080

  Important amplitudes:
      occ i      occ j       vir a       vir b          v   
    ---------------------------------------------------------
     20 (A) A               28 (A) A                  0.6104
     20 (A) A               22 (A) A                  0.1786
    ---------------------------------------------------------
  ----------------------------------------------------------------------------


  Excited state 13 (singlet, A)                                    [converged]
  ----------------------------------------------------------------------------
  Term symbol:  14 (1) A                                    R^2 =  4.23623e-13

  Total energy:                                           -263.2965044978 a.u.
  Excitation energy:                                               7.691693 eV

  Osc. strength:                                                0.040698377435
  Trans. dip. moment [a.u.]:           [   0.000000,    0.000000,   -0.464728]
  <i|r^2|0> [a.u.]:                    [  -0.000000,    0.000000,   -0.000000]


  V1^2 = 0.9364, V2^2 = 0.0636

  Important amplitudes:
      occ i      occ j       vir a       vir b          v   
    ---------------------------------------------------------
     21 (A) A               23 (A) A                 -0.6491
     21 (A) A               36 (A) A                 -0.2002
    ---------------------------------------------------------
  ----------------------------------------------------------------------------


  Excited state 14 (singlet, A)                                    [converged]
  ----------------------------------------------------------------------------
  Term symbol:  15 (1) A                                    R^2 =  5.13771e-13

  Total energy:                                           -263.2916582588 a.u.
  Excitation energy:                                               7.823565 eV

  Osc. strength:                                                0.002982142561
  Trans. dip. moment [a.u.]:           [   0.000000,    0.000000,   -0.124733]
  <i|r^2|0> [a.u.]:                    [   0.000000,    0.000000,    0.000000]


  V1^2 = 0.8930, V2^2 = 0.1070

  Important amplitudes:
      occ i      occ j       vir a       vir b          v   
    ---------------------------------------------------------
     20 (A) A               29 (A) A                  0.6182
     20 (A) A               25 (A) A                 -0.2314
    ---------------------------------------------------------
  ----------------------------------------------------------------------------


  Excited state 15 (singlet, A)                                    [converged]
  ----------------------------------------------------------------------------
  Term symbol:  16 (1) A                                    R^2 =  5.20742e-13

  Total energy:                                           -263.2889806784 a.u.
  Excitation energy:                                               7.896426 eV

  Osc. strength:                                                0.456179190210
  Trans. dip. moment [a.u.]:           [  -1.535583,   -0.000036,   -0.000000]
  <i|r^2|0> [a.u.]:                    [   0.000035,    0.000041,   -0.000020]


  V1^2 = 0.9145, V2^2 = 0.0855

  Important amplitudes:
      occ i      occ j       vir a       vir b          v   
    ---------------------------------------------------------
     19 (A) A               27 (A) A                 -0.5351
     21 (A) A               25 (A) A                  0.3084
    ---------------------------------------------------------
  ----------------------------------------------------------------------------


  Excited state 16 (singlet, A)                                    [converged]
  ----------------------------------------------------------------------------
  Term symbol:  17 (1) A                                    R^2 =  7.73216e-13

  Total energy:                                           -263.2875290022 a.u.
  Excitation energy:                                               7.935928 eV

  Osc. strength:                                                0.020069600880
[...]
        5 (1) A   2.78998897e+02  1.45572266e-10 -2.38701999e-05
        6 (1) A   2.79888306e+02  7.29027992e-07 -2.70343139e-06
        7 (1) A   2.79888824e+02  5.62953004e-09 -3.08498479e-05
        8 (1) A   2.79897778e+02  6.85990206e-09  3.30246116e-08
        9 (1) A   2.79898981e+02  4.74579387e-06 -1.77913702e-08
       10 (1) A   2.81735434e+02  1.55211535e-13 -3.09018690e-16
       11 (1) A   2.81735833e+02  2.45414806e-13  2.41257466e-16
       12 (1) A   2.81768823e+02  1.43109829e-09 -2.42557605e-17
       13 (1) A   2.81769528e+02  5.93437174e-06  1.69394876e-16
       14 (1) A   2.82620326e+02  8.78070638e-14  7.72062242e-15
       15 (1) A   2.82620393e+02  1.04987590e-13  2.63612686e-15
       16 (1) A   2.82653001e+02  1.95337250e-09  3.14664445e-14
       17 (1) A   2.82653849e+02  5.32974181e-06 -4.75885772e-14
       18 (1) A   2.82951941e+02  2.91634426e-11  1.02914794e-10
       19 (1) A   2.82952393e+02  9.48398834e-09 -4.82618120e-11
       20 (1) A   2.82978978e+02  2.06060333e-14  4.11088847e-11
       21 (1) A   2.82980033e+02  1.72004214e-14  5.32578758e-11
 ----------------------------------------------------------------
 ----------------------------------------------------------------
 Transitions from pumped state 16 (1) A
 ----------------------------------------------------------------
   probed state    E_pr - E_pu    osc. strength       overlap   
 ----------------------------------------------------------------
        2 (1) A   2.78895020e+02  8.21323561e-12  4.09259700e-17
        3 (1) A   2.78896365e+02  2.03442634e-10  1.15273410e-16
        4 (1) A   2.78922394e+02  5.96659786e-03  3.21863602e-16
        5 (1) A   2.78926036e+02  1.99410792e-07 -1.02728197e-16
        6 (1) A   2.79815446e+02  1.75455238e-03 -1.96526845e-16
        7 (1) A   2.79815963e+02  1.35431554e-05  1.54091234e-16
        8 (1) A   2.79824918e+02  5.29425379e-10  2.19169561e-16
        9 (1) A   2.79826121e+02  1.33607038e-09  1.41948988e-17
       10 (1) A   2.81662574e+02  2.68305842e-05  4.12617837e-09
       11 (1) A   2.81662972e+02  2.33075085e-08 -2.31778225e-08
       12 (1) A   2.81695962e+02  1.97737410e-08  2.27929352e-05
       13 (1) A   2.81696668e+02  8.43980900e-05  3.51655805e-07
       14 (1) A   2.82547465e+02  3.87859465e-05  4.76721702e-09
       15 (1) A   2.82547532e+02  2.83335489e-06  3.63206517e-09
       16 (1) A   2.82580141e+02  3.60044333e-09  3.40527088e-05
       17 (1) A   2.82580989e+02  9.72549253e-06 -6.52278081e-07
       18 (1) A   2.82879081e+02  4.45064604e-08 -6.10160414e-05
       19 (1) A   2.82879533e+02  1.35703380e-05 -3.49846923e-06
       20 (1) A   2.82906117e+02  6.20457772e-09  2.13766433e-08
       21 (1) A   2.82907172e+02  1.07299572e-05 -1.54732911e-08
 ----------------------------------------------------------------
 ----------------------------------------------------------------
 Transitions from pumped state 17 (1) A
 ----------------------------------------------------------------
   probed state    E_pr - E_pu    osc. strength       overlap   
 ----------------------------------------------------------------
        2 (1) A   2.78855518e+02  1.66625789e-07 -2.44698772e-16
        3 (1) A   2.78856862e+02  6.65410881e-04  8.21473033e-17
        4 (1) A   2.78882892e+02  4.75113407e-12 -5.17731489e-16
        5 (1) A   2.78886534e+02  6.28454953e-13  2.31856432e-16
        6 (1) A   2.79775944e+02  1.39669864e-09  6.72617231e-16
        7 (1) A   2.79776461e+02  7.49745600e-10 -1.90451291e-16
        8 (1) A   2.79785416e+02  2.91021271e-06  1.31696943e-17
        9 (1) A   2.79786619e+02  1.99958952e-03  2.21132069e-17
       10 (1) A   2.81623072e+02  1.03748935e-03 -1.64571326e-05
       11 (1) A   2.81623470e+02  8.92834479e-07 -5.60948927e-04
       12 (1) A   2.81656460e+02  3.73840747e-09 -8.71924172e-08
       13 (1) A   2.81657166e+02  1.64699624e-05 -1.03125715e-07
       14 (1) A   2.82507963e+02  1.25451898e-03  7.47125759e-05
       15 (1) A   2.82508030e+02  9.14664889e-05  2.76613570e-04
       16 (1) A   2.82540638e+02  1.85224324e-11  4.50704520e-08
       17 (1) A   2.82541487e+02  3.80974215e-09 -3.29017755e-08
       18 (1) A   2.82839579e+02  3.91077787e-07  2.26377249e-08
       19 (1) A   2.82840031e+02  1.19266159e-04  1.82274828e-08
       20 (1) A   2.82866615e+02  2.82596921e-08  6.36403298e-05
       21 (1) A   2.82867670e+02  4.94782952e-05 -1.53311877e-06
 ----------------------------------------------------------------
 ----------------------------------------------------------------
 Transitions from pumped state 18 (1) A
 ----------------------------------------------------------------
   probed state    E_pr - E_pu    osc. strength       overlap   
 ----------------------------------------------------------------
        2 (1) A   2.78705468e+02  4.14438735e-07  2.07351848e-16
        3 (1) A   2.78706812e+02  1.65330467e-03 -4.60625946e-17
        4 (1) A   2.78732842e+02  5.34759984e-11  6.67409145e-16
        5 (1) A   2.78736484e+02  1.43127927e-12 -1.83050451e-16
        6 (1) A   2.79625893e+02  6.33094559e-09 -7.03898982e-16
        7 (1) A   2.79626411e+02  3.17974853e-09  3.19202991e-16
        8 (1) A   2.79635365e+02  1.22373061e-05  1.90590136e-16
        9 (1) A   2.79636569e+02  8.40788100e-03  6.87423024e-18
       10 (1) A   2.81473022e+02  4.46695164e-04  6.09765596e-06
       11 (1) A   2.81473420e+02  3.84970872e-07  2.07814185e-04
       12 (1) A   2.81506410e+02  9.59778369e-09  3.12501720e-08
       13 (1) A   2.81507115e+02  4.13153069e-05  3.87364033e-08
       14 (1) A   2.82357913e+02  1.01058317e-04 -4.51800017e-05
       15 (1) A   2.82357980e+02  7.36847706e-06 -1.67291440e-04
       16 (1) A   2.82390588e+02  5.22563459e-09 -2.84230142e-08
       17 (1) A   2.82391436e+02  1.41393297e-05  1.91821920e-08
       18 (1) A   2.82689529e+02  1.87127700e-06 -1.13295725e-08
       19 (1) A   2.82689980e+02  5.69499394e-04 -1.28086319e-08
       20 (1) A   2.82716565e+02  1.45727514e-08 -4.04204751e-05
       21 (1) A   2.82717620e+02  2.52455865e-05  9.69204161e-07
 ----------------------------------------------------------------
 ----------------------------------------------------------------
 Transitions from pumped state 19 (1) A
 ----------------------------------------------------------------
   probed state    E_pr - E_pu    osc. strength       overlap   
 ----------------------------------------------------------------
        2 (1) A   2.78569293e+02  1.69493486e-07 -4.64752778e-05
        3 (1) A   2.78570638e+02  6.79913912e-04  7.34574605e-07
        4 (1) A   2.78596667e+02  7.09966170e-06 -2.17066817e-09
        5 (1) A   2.78600309e+02  2.24275048e-10  9.71075629e-09
        6 (1) A   2.79489719e+02  1.89344237e-06 -3.46745543e-08
        7 (1) A   2.79490236e+02  1.46529581e-08  8.41399399e-08
        8 (1) A   2.79499191e+02  2.82936600e-07  7.27544412e-05
        9 (1) A   2.79500394e+02  1.93999865e-04 -2.77104670e-06
       10 (1) A   2.81336847e+02  1.72649723e-03 -1.68944733e-12
       11 (1) A   2.81337246e+02  1.48831673e-06 -5.94616971e-13
       12 (1) A   2.81370235e+02  5.51801372e-11 -4.00089133e-13
       13 (1) A   2.81370941e+02  4.09590367e-11 -7.31205327e-12
       14 (1) A   2.82221738e+02  6.14795510e-04 -3.08155914e-12
       15 (1) A   2.82221805e+02  4.47940507e-05  3.62376743e-12
       16 (1) A   2.82254414e+02  7.70942749e-12 -8.60080700e-13
       17 (1) A   2.82255262e+02  1.63362894e-11 -5.52123669e-12
       18 (1) A   2.82553354e+02  1.93653525e-09 -2.26629085e-12
       19 (1) A   2.82553806e+02  4.22269242e-09  1.47603220e-11
       20 (1) A   2.82580390e+02  2.24305314e-05  5.07345324e-12
       21 (1) A   2.82581445e+02  3.89701811e-02  4.73028506e-12
 ----------------------------------------------------------------
 ----------------------------------------------------------------
 Transitions from pumped state 20 (1) A
 ----------------------------------------------------------------
   probed state    E_pr - E_pu    osc. strength       overlap   
 ----------------------------------------------------------------
        2 (1) A   2.78466404e+02  4.81577137e-06  1.99241725e-04
        3 (1) A   2.78467748e+02  1.93131772e-02 -3.16006319e-06
        4 (1) A   2.78493778e+02  1.57088198e-04  9.69584972e-09
        5 (1) A   2.78497420e+02  5.01222837e-09 -2.84088256e-08
        6 (1) A   2.79386830e+02  8.03443994e-05 -2.77191860e-08
        7 (1) A   2.79387347e+02  6.22023664e-07  6.45326050e-08
        8 (1) A   2.79396302e+02  8.74872329e-06  5.26827962e-05
        9 (1) A   2.79397505e+02  5.99720422e-03 -2.00013962e-06
       10 (1) A   2.81233958e+02  5.18156553e-05 -2.70933753e-09
       11 (1) A   2.81234356e+02  4.47715563e-08  2.62461152e-10
       12 (1) A   2.81267346e+02  8.20121420e-13 -6.54777328e-11
       13 (1) A   2.81268052e+02  1.32267871e-12  8.38077403e-10
       14 (1) A   2.82118849e+02  1.18230783e-05 -3.61079723e-09
       15 (1) A   2.82118916e+02  8.61350702e-07  3.45367671e-10
       16 (1) A   2.82151524e+02  5.94948901e-13 -1.08626314e-10
       17 (1) A   2.82152373e+02  4.56714789e-13  1.84297720e-10
       18 (1) A   2.82450465e+02  6.27488922e-11  8.89925763e-11
       19 (1) A   2.82450917e+02  1.49294889e-10 -8.57042056e-10
       20 (1) A   2.82477501e+02  7.85475547e-07 -5.32296542e-12
       21 (1) A   2.82478556e+02  1.36720829e-03  6.46962989e-10
 ----------------------------------------------------------------
 ----------------------------------------------------------------
 Transitions from pumped state 21 (1) A
 ----------------------------------------------------------------
   probed state    E_pr - E_pu    osc. strength       overlap   
 ----------------------------------------------------------------
        2 (1) A   2.78392362e+02  1.59602613e-12 -1.85233902e-11
        3 (1) A   2.78393707e+02  2.05485427e-13 -3.25310775e-11
        4 (1) A   2.78419736e+02  1.70905602e-09 -1.10718030e-10
        5 (1) A   2.78423379e+02  5.26208389e-05  3.28062957e-13
        6 (1) A   2.79312788e+02  9.65453867e-08  4.34548108e-11
        7 (1) A   2.79313306e+02  1.25427076e-05 -2.38325349e-11
        8 (1) A   2.79322260e+02  1.45300521e-11 -3.34474417e-11
        9 (1) A   2.79323463e+02  2.94250332e-12 -3.14997698e-11
       10 (1) A   2.81159916e+02  7.61939654e-09 -4.02739380e-10
       11 (1) A   2.81160315e+02  8.86946325e-06  9.00405779e-09
       12 (1) A   2.81193304e+02  1.36235959e-07  5.81663313e-07
       13 (1) A   2.81194010e+02  3.38247293e-11 -3.80711264e-05
       14 (1) A   2.82044807e+02  9.90903740e-06  4.71085351e-09
       15 (1) A   2.82044875e+02  1.35869601e-04  1.21995290e-09
       16 (1) A   2.82077483e+02  9.46206157e-06  5.14705389e-07
       17 (1) A   2.82078331e+02  3.41304300e-09  2.67506818e-05
       18 (1) A   2.82376423e+02  2.29465054e-04 -1.24252227e-05
       19 (1) A   2.82376875e+02  7.54446211e-07  2.16680981e-04
       20 (1) A   2.82403460e+02  2.70879704e-04 -5.42590402e-08
       21 (1) A   2.82404514e+02  1.55577692e-07  6.82461056e-08
 ----------------------------------------------------------------
********************************************************************************
 End of Pump-Probe Results
********************************************************************************
********************************************************************************
 FANOMAN: Finished computation of pump <-> probe transitions.
********************************************************************************
--------------------------------------------------------------------------------
 >>> fanoman shutting down. <<<
--------------------------------------------------------------------------------
 
 --------------------------------------------------------------
             Orbital Energies (a.u.) and Symmetries
 --------------------------------------------------------------
 
 Alpha MOs, Restricted
 -- Occupied --                  
-15.612 -15.612 -11.298 -11.298 -11.297 -11.297  -1.307  -1.222
  1 A'    2 A'    3 A'    4 A'    5 A'    6 A'    7 A'    8 A'                 
 -1.054  -0.906  -0.888  -0.726  -0.703  -0.678  -0.610  -0.572
  9 A'   10 A'   11 A'   12 A'   13 A'   14 A'   15 A'    1 A"                 
 -0.551  -0.506  -0.436  -0.418  -0.361
 16 A'   17 A'    2 A"   18 A'    3 A"                                         
 -- Virtual --                   
  0.042   0.047   0.063   0.064   0.069   0.096   0.106   0.126
 19 A'   20 A'   21 A'    4 A"   22 A'    5 A"   23 A'    6 A"                 
  0.129   0.137   0.143   0.148   0.148   0.181   0.187   0.190
  7 A"   24 A'   25 A'   26 A'    8 A"   27 A'   28 A'   29 A'                 
  0.201   0.214   0.214   0.216   0.222   0.262   0.291   0.317
 30 A'   31 A'    9 A"   32 A'   33 A'   34 A'   10 A"   35 A'                 
  0.319   0.328   0.353   0.362   0.384   0.388   0.400   0.406
 11 A"   36 A'   12 A"   37 A'   38 A'   39 A'   40 A'   41 A'                 
  0.411   0.452   0.470   0.483   0.551   0.552   0.578   0.783
 42 A'   43 A'   44 A'   45 A'   46 A'   47 A'   48 A'   49 A'                 
  0.783   0.836   0.858   0.869   0.912   0.950   0.956   0.959
 50 A'   51 A'   52 A'   13 A"   14 A"   53 A'   15 A"   16 A"                 
  1.082   1.127   1.131   1.139   1.196   1.198   1.224   1.228
 54 A'   55 A'   56 A'   57 A'   58 A'   59 A'   17 A"   60 A'                 
  1.261   1.292   1.329   1.332   1.340   1.357   1.380   1.384
 61 A'   18 A"   62 A'   63 A'   64 A'   65 A'   66 A'   67 A'                 
  1.481   1.482   1.482   1.544   1.586   1.663   1.701   1.731
 68 A'   69 A'   19 A"   20 A"   70 A'   21 A"   22 A"   23 A"                 
  1.735   1.739   1.942   2.017   2.083   2.137   2.143   2.238
 24 A"   71 A'   72 A'   73 A'   74 A'   75 A'   76 A'   25 A"                 
  2.266   2.299   2.388   2.423   2.450   2.480   2.485   2.596
 77 A'   78 A'   26 A"   79 A'   27 A"   80 A'   81 A'   82 A'                 
  2.644   2.665   2.680   2.759   2.766   2.768   2.796   2.868
 28 A"   29 A"   30 A"   83 A'   31 A"   84 A'   85 A'   32 A"                 
  2.880   2.973   2.984   3.009   3.029   3.070   3.218   3.271
 86 A'   87 A'   33 A"   88 A'   34 A"   89 A'   90 A'   91 A'                 
  3.324   3.553   3.603   3.618   3.668   3.909   4.141   4.436
 92 A'   93 A'   94 A'   95 A'   96 A'   97 A'   98 A'   99 A'                 
  4.704   4.804   4.812   4.914   5.075
100 A'  101 A'  102 A'  103 A'  104 A'                                         
 
 Beta MOs, Restricted
 -- Occupied --                  
-15.612 -15.612 -11.298 -11.298 -11.297 -11.297  -1.307  -1.222
  1 A'    2 A'    3 A'    4 A'    5 A'    6 A'    7 A'    8 A'                 
 -1.054  -0.906  -0.888  -0.726  -0.703  -0.678  -0.610  -0.572
  9 A'   10 A'   11 A'   12 A'   13 A'   14 A'   15 A'    1 A"                 
 -0.551  -0.506  -0.436  -0.418  -0.361
 16 A'   17 A'    2 A"   18 A'    3 A"                                         
 -- Virtual --                   
  0.042   0.047   0.063   0.064   0.069   0.096   0.106   0.126
 19 A'   20 A'   21 A'    4 A"   22 A'    5 A"   23 A'    6 A"                 
  0.129   0.137   0.143   0.148   0.148   0.181   0.187   0.190
  7 A"   24 A'   25 A'   26 A'    8 A"   27 A'   28 A'   29 A'                 
  0.201   0.214   0.214   0.216   0.222   0.262   0.291   0.317
 30 A'   31 A'    9 A"   32 A'   33 A'   34 A'   10 A"   35 A'                 
  0.319   0.328   0.353   0.362   0.384   0.388   0.400   0.406
 11 A"   36 A'   12 A"   37 A'   38 A'   39 A'   40 A'   41 A'                 
  0.411   0.452   0.470   0.483   0.551   0.552   0.578   0.783
 42 A'   43 A'   44 A'   45 A'   46 A'   47 A'   48 A'   49 A'                 
  0.783   0.836   0.858   0.869   0.912   0.950   0.956   0.959
 50 A'   51 A'   52 A'   13 A"   14 A"   53 A'   15 A"   16 A"                 
  1.082   1.127   1.131   1.139   1.196   1.198   1.224   1.228
 54 A'   55 A'   56 A'   57 A'   58 A'   59 A'   17 A"   60 A'                 
  1.261   1.292   1.329   1.332   1.340   1.357   1.380   1.384
 61 A'   18 A"   62 A'   63 A'   64 A'   65 A'   66 A'   67 A'                 
  1.481   1.482   1.482   1.544   1.586   1.663   1.701   1.731
 68 A'   69 A'   19 A"   20 A"   70 A'   21 A"   22 A"   23 A"                 
  1.735   1.739   1.942   2.017   2.083   2.137   2.143   2.238
 24 A"   71 A'   72 A'   73 A'   74 A'   75 A'   76 A'   25 A"                 
  2.266   2.299   2.388   2.423   2.450   2.480   2.485   2.596
 77 A'   78 A'   26 A"   79 A'   27 A"   80 A'   81 A'   82 A'                 
  2.644   2.665   2.680   2.759   2.766   2.768   2.796   2.868
 28 A"   29 A"   30 A"   83 A'   31 A"   84 A'   85 A'   32 A"                 
  2.880   2.973   2.984   3.009   3.029   3.070   3.218   3.271
 86 A'   87 A'   33 A"   88 A'   34 A"   89 A'   90 A'   91 A'                 
  3.324   3.553   3.603   3.618   3.668   3.909   4.141   4.436
 92 A'   93 A'   94 A'   95 A'   96 A'   97 A'   98 A'   99 A'                 
  4.704   4.804   4.812   4.914   5.075
100 A'  101 A'  102 A'  103 A'  104 A'                                         
 --------------------------------------------------------------
 
          Ground-State Mulliken Net Atomic Charges

     Atom                 Charge (a.u.)
  ----------------------------------------
      1 C                    -0.045367
      2 C                    -0.045368
      3 N                    -0.231399
      4 C                    -0.045349
      5 C                    -0.045361
      6 N                    -0.231393
      7 H                     0.161061
      8 H                     0.161061
      9 H                     0.161056
     10 H                     0.161059
  ----------------------------------------
  Sum of atomic charges =     0.000000

 -----------------------------------------------------------------
                    Cartesian Multipole Moments
 -----------------------------------------------------------------
    Charge (ESU x 10^10)
                 0.0000
    Dipole Moment (Debye)
         X      -0.0000      Y      -0.0000      Z      -0.0000
       Tot       0.0001
    Quadrupole Moments (Debye-Ang)
        XX     -26.4374     XY       0.0000     YY     -42.5788
        XZ       0.0000     YZ       0.0000     ZZ     -37.3767
    Octopole Moments (Debye-Ang^2)
       XXX      -0.0005    XXY      -0.0000    XYY       0.0004
       YYY      -0.0002    XXZ      -0.0000    XYZ      -0.0000
       YYZ      -0.0000    XZZ      -0.0001    YZZ       0.0000
       ZZZ      -0.0000
    Hexadecapole Moments (Debye-Ang^3)
      XXXX    -230.5410   XXXY      -0.0001   XXYY     -70.7728
      XYYY       0.0004   YYYY    -315.9816   XXXZ       0.0000
      XXYZ       0.0000   XYYZ       0.0000   YYYZ       0.0000
      XXZZ     -56.9418   XYZZ       0.0000   YYZZ     -54.8126
      XZZZ       0.0000   YZZZ       0.0000   ZZZZ     -42.1189
 -----------------------------------------------------------------
Archival summary:
1\1\Knecht20\SP\HF\BasisUnspecified\244\ccprak10\FriNov517:25:342021FriNov517:25:342021\0\\#,HF,BasisUnspecified,\\0,1\N\C,1,1.34905\H,2,1.09636,1,116.731\C,1,1.34907,2,114.604,3,-180,0\H,4,1.09636,1,116.73,2,-180,0\C,4,1.40453,1,122.698,2,-0,0\H,6,1.09635,4,120.572,1,-180,0\N,6,1.34907,4,122.698,1,0,0\C,8,1.34905,6,114.604,4,-0,0\H,9,1.09636,8,116.734,6,-180,0\\HF=-262.691399\\@

 Total job time:  8895.67s(wall), 72210.03s(cpu) 
 Fri Nov  5 17:25:34 2021

        *************************************************************
        *                                                           *
        *  Thank you very much for using Q-Chem.  Have a nice day.  *
        *                                                           *
        *************************************************************


