Knecht17 192.168.1
Q-Chem Developer Version! Running on 192.168.1.*
                  Welcome to Q-Chem
     A Quantum Leap Into The Future Of Chemistry


 Q-Chem 5.0, Q-Chem, Inc., Pleasanton, CA (2017)

 Yihan Shao,  Zhengting Gan,  E. Epifanovsky,  A. T. B. Gilbert,  M. Wormit,  
 J. Kussmann,  A. W. Lange,  A. Behn,  Jia Deng,  Xintian Feng,  D. Ghosh,  
 M. Goldey,  P. R. Horn,  L. D. Jacobson,  I. Kaliman,  T. Kus,  A. Landau,  
 Jie Liu,  E. I. Proynov,  R. M. Richard,  R. P. Steele,  E. J. Sundstrom,  
 H. L. Woodcock III,  P. M. Zimmerman,  D. Zuev,  B. Albrecht,  E. Alguire,  
 S. A. Baeppler,  Z. Benda,  Y. A. Bernard,  E. J. Berquist,  K. B. Bravaya,  
 D. Casanova,  Chun-Min Chang,  Yunqing Chen,  A. Chien,  K. D. Closser,  
 M. P. Coons,  S. Dasgupta,  M. Diedenhofen,  Hainam Do,  R. G. Edgar,  
 Po-Tung Fang,  S. Fatehi,  Qingguo Feng,  Qinghui Ge,  A. Ghysels,  
 J. Gomes,  J. Gonthier,  A. Gunina,  M. W. D. Hanson-Heine,  
 P. H. P. Harbach,  A. W. Hauser,  J. E. Herr,  E. G. Hohenstein,  
 Z. C. Holden,  Kerwin Hui,  T.-C. Jagau,  Hyunjun Ji,  B. Kaduk,  
 K. Khistyaev,  Jaehoon Kim,  P. Klunzinger,  K. Koh,  D. Kosenkov,  
 T. Kowalczyk,  C. M. Krauter,  A. Kunitsa,  Ka Un Lao,  A. Laurent,  
 K. V. Lawler,  Joonho Lee,  D. Lefrancois,  S. Lehtola,  D. S. Levine,  
 Yi-Pei Li,  You-Sheng Lin,  Fenglai Liu,  E. Livshits,  A. Luenser,  
 P. Manohar,  E. Mansoor,  S. F. Manzer,  Shan-Ping Mao,  Yuezhi Mao,  
 N. Mardirossian,  A. V. Marenich,  L. A. Martinez-Martinez,  S. A. Maurer,  
 N. J. Mayhall,  S. C. McKenzie,  J.-M. Mewes,  A. F. Morrison,  K. Nanda,  
 T. S. Nguyen-Beck,  R. Olivares-Amaya,  J. A. Parkhill,  T. M. Perrine,  
 F. Plasser,  S. Prager,  A. Prociuk,  D. R. Rehn,  F. Rob,  M. Schneider,  
 N. Sergueev,  S. M. Sharada,  S. Sharma,  D. W. Small,  T. Stauch,  
 T. Stein,  Yu-Chuan Su,  A. J. W. Thom,  T. Tsuchimochi,  L. Vogt,  
 O. Vydrov,  M. A. Watson,  J. Wenzel,  M. de Wergifosse,  T. A. Wesolowski,  
 A. White,  J. Witte,  A. Yamada,  Jun Yang,  K. Yao,  S. Yeganeh,  
 S. R. Yost,  Zhi-Qiang You,  A. Zech,  Igor Ying Zhang,  Xing Zhang,  
 Yan Zhao,  Ying Zhu,  B. R. Brooks,  G. K. L. Chan,  C. J. Cramer,  
 M. S. Gordon,  W. J. Hehre,  A. Klamt,  M. W. Schmidt,  C. D. Sherrill,  
 D. G. Truhlar,  A. Aspuru-Guzik,  R. Baer,  A. T. Bell,  N. A. Besley,  
 Jeng-Da Chai,  A. Dreuw,  B. D. Dunietz,  T. R. Furlani,  Chao-Ping Hsu,  
 Yousung Jung,  Jing Kong,  D. S. Lambrecht,  WanZhen Liang,  C. Ochsenfeld,  
 V. A. Rassolov,  L. V. Slipchenko,  J. E. Subotnik,  T. Van Voorhis,  
 J. M. Herbert,  A. I. Krylov,  P. M. W. Gill,  M. Head-Gordon

 Contributors to earlier versions of Q-Chem not listed above: 
 R. D. Adamson,  B. Austin,  J. Baker,  G. J. O. Beran,  K. Brandhorst,  
 S. T. Brown,  E. F. C. Byrd,  A. K. Chakraborty,  C.-L. Cheng,  
 Siu Hung Chien,  D. M. Chipman,  D. L. Crittenden,  H. Dachsel,  
 R. A. DiStasio Jr.,  R. J. Doerksen,  A. D. Dutoi,  L. Fusti-Molnar,  
 W. A. Goddard III,  A. Golubeva-Zadorozhnaya,  S. R. Gwaltney,  G. Hawkins,  
 A. Heyden,  S. Hirata,  G. Kedziora,  F. J. Keil,  C. Kelley,  Jihan Kim,  
 R. A. King,  R. Z. Khaliullin,  P. P. Korambath,  W. Kurlancheek,  
 A. M. Lee,  M. S. Lee,  S. V. Levchenko,  Ching Yeh Lin,  D. Liotard,  
 R. C. Lochan,  I. Lotan,  P. E. Maslen,  N. Nair,  D. P. O'Neill,  
 D. Neuhauser,  E. Neuscamman,  C. M. Oana,  R. Olson,  B. Peters,  
 R. Peverati,  P. A. Pieniazek,  Y. M. Rhee,  J. Ritchie,  M. A. Rohrdanz,  
 E. Rosta,  N. J. Russ,  H. F. Schaefer III,  N. E. Schultz,  N. Shenvi,  
 A. C. Simmonett,  A. Sodt,  D. Stuck,  K. S. Thanthiriwatte,  V. Vanovschi,  
 Tao Wang,  A. Warshel,  C. F. Williams,  Q. Wu,  X. Xu,  W. Zhang

 Please cite Q-Chem as follows:
 Y. Shao et al., Mol. Phys. 113, 184-215 (2015)
 DOI: 10.1080/00268976.2014.952696

 Q-Chem 5.0.1 for Intel X86 EM64T Linux

 Parts of Q-Chem use Armadillo 5.200.1 (Boston Tea Smuggler).
 http://arma.sourceforge.net/

 Q-Chem begins on Tue Dec 28 12:41:56 2021  

Host: 
0

     Scratch files written to /lscratch/tkaczun/transient_absorption/Trajectories_10/12.0/TRAJ2_399062.Meister/qchem5140//
 
>>> fanoman::qchem_input_parser: Checking options in input section $fano_pump
 ------------------------------------------------------------
 
>>> fanoman::qchem_input_parser: Checking options in input section $fano_probe
 ------------------------------------------------------------

Checking the input file for inconsistencies... 	...done.

--------------------------------------------------------------
User input:
--------------------------------------------------------------
$comment
time = 12.0
$end

$molecule
0 1
c       -1.17030        0.74283        0.01198
c       -1.15658       -0.72624        0.09658
n       -0.03253       -1.48383       -0.05724
c        1.21856       -0.77846       -0.00621
c        1.15656        0.74964        0.03992
n       -0.01566        1.48532       -0.05085
h       -2.23878        1.33599       -0.12208
h       -2.04728       -1.22776       -0.14374
h        2.28912       -1.27081       -0.01263
h        2.09155        1.28746        0.08477
$end

$rem
	JOBTYPE         SP
	METHOD          FANO
	basis cc-pCVDZ
	cc_symmetry FALSE
    SYM_TOL		4
	mem_total 50000
	threads 1
	!QSYS wt=12:00:00
	!QSYS mem=60.0gb
	!QSYS vmem=60.0gb
	!ADC_PRINT       6
	!FANO_PRINT      3
$end

$fano_pump
	METHOD                   ADC(2)
	EE_SINGLETS              7 
	ADC_DAVIDSON_MAXITER     150
$end

$fano_probe
	METHOD                   CVS-ADC(2)-x
	CC_REST_OCC              6
	EE_SINGLETS              10
	ADC_DAVIDSON_MAXITER     150
$end
--------------------------------------------------------------
 ----------------------------------------------------------------
             Standard Nuclear Orientation (Angstroms)
    I     Atom           X                Y                Z
 ----------------------------------------------------------------
    1      C       1.3862406484     0.0043252332     0.0183587843
    2      C       0.5848855989     1.2355624950     0.1043643256
    3      N      -0.7697305775     1.2708073409    -0.0533202283
    4      C      -1.4458263542     0.0034360781    -0.0081354004
    5      C      -0.5724150365    -1.2520325881     0.0367275628
    6      N       0.8117643708    -1.2421669051    -0.0499558858
    7      H       2.6064673737     0.0787569780    -0.1118987829
    8      H       1.0671776079     2.1379186280    -0.1317931007
    9      H      -2.6132160374    -0.1566984566    -0.0184654987
   10      H      -1.0719746369    -2.2082075093     0.0771985477
 ----------------------------------------------------------------
 Molecular Point Group                 C1    NOp =  1
 Largest Abelian Subgroup              C1    NOp =  1
 Nuclear Repulsion Energy =   198.9038211985 hartrees
 There are       21 alpha and       21 beta electrons
 Requested basis set is cc-pCVDZ
 There are 60 shells and 128 basis functions

 Total QAlloc Memory Limit  50000 MB
 Mega-Array Size        61 MB
 MEM_STATIC part        62 MB

                       Distance Matrix (Angstroms)
             C (  1)   C (  2)   N (  3)   C (  4)   C (  5)   N (  6)
   C (  2)  1.471568
   N (  3)  2.501465  1.364218
   C (  4)  2.832191  2.377937  1.437142
   C (  5)  2.327038  2.744458  2.532146  1.530053
   N (  6)  1.374203  2.492876  2.969205  2.578758  1.386926
   H (  7)  1.229415  2.339180  3.580940  4.054322  3.449403  2.229268
   H (  8)  2.162537  1.050058  2.032799  3.299469  3.769407  3.390710
   H (  9)  4.002866  3.490176  2.331829  1.178367  2.316824  3.593010
   H ( 10)  3.307807  3.821711  3.494557  2.244641  1.079569  2.120819
             H (  7)   H (  8)   H (  9)
   H (  8)  2.570983
   H (  9)  5.225827  4.338595
   H ( 10)  4.335539  4.848553  2.567736
 
 A cutoff of  1.0D-11 yielded   1764 shell pairs
 There are      8046 function pairs (      8865 Cartesian)
 Smallest overlap matrix eigenvalue = 2.75E-03

 Scale SEOQF with 1.000000e-01/1.000000e-01/1.000000e+00

 Standard Electronic Orientation quadrupole field applied
 Nucleus-field energy     =     0.0000000053 hartrees
 Guess from superposition of atomic densities
 Warning:  Energy on first SCF cycle will be non-variational
 SAD guess density has 42.000000 electrons
 A restricted Hartree-Fock SCF calculation will be
 performed using Pulay DIIS extrapolation
 SCF converges when DIIS error is below 1.0E-08
 ---------------------------------------
  Cycle       Energy         DIIS Error
 ---------------------------------------
    1    -263.9694089326      5.89E-02
    2    -262.5493770339      5.22E-03
    3    -262.6163424625      2.37E-03
    4    -262.6270452761      9.19E-04
    5    -262.6292961959      2.04E-04
    6    -262.6294454842      6.83E-05
    7    -262.6294763590      3.11E-05
    8    -262.6294823324      1.16E-05
    9    -262.6294830845      4.94E-06
   10    -262.6294832537      1.93E-06
   11    -262.6294832909      1.10E-06
   12    -262.6294833053      4.45E-07
   13    -262.6294833074      2.12E-07
   14    -262.6294833075      6.25E-08
   15    -262.6294833079      2.79E-08
   16    -262.6294833074      1.52E-08
   17    -262.6294833073      5.19E-09 Convergence criterion met
 ---------------------------------------
 SCF time:  CPU 20.36 s  wall 20.37 s
 SCF   energy in the final basis set = -262.62948331
 Total energy in the final basis set = -262.62948331
--------------------------------------------------------------------------------
 >>> This is fanoman. <<<
--------------------------------------------------------------------------------
********************************************************************************
 FANOMAN: Performing probe state ADC calculation.
********************************************************************************
================================================================================
|                                                                              |
|                                 A D C  M A N                                 |
|                                                                              |
 ------------------------------------------------------------------------------ 
|                                                                              |
| Components:                                                                  |
|                                                                              |
| - libvmm - 1.3-trunk                                                         |
|   Authors:                                                                   |
|   Evgeny Epifanovsky, Ilya Kaliman                                           |
|                                                                              |
| - libtensor - 2.5-trunk                                                      |
|   Authors:                                                                   |
|   Evgeny Epifanovsky, Michael Wormit, Dmitry Zuev, Sam Manzer,               |
|   Ilya Kaliman                                                               |
|                                                                              |
| - libwfa - 1.1-beta                                                          |
|   Authors:                                                                   |
|   Felix Plasser, Stefanie Baeppler, Benjamin Thomitzni, Michael Wormit       |
|                                                                              |
| - libadc - 1.0-beta                                                          |
|   Authors:                                                                   |
|   Michael Wormit, Philipp H. P. Harbach, Caroline Krauter, Dirk Rehn,        |
|   Matthias Schneider, Jan Wenzel                                             |
|                                                                              |
| - adcman - 2.5-core_valence                                                  |
|   Authors:                                                                   |
|   Michael Wormit, Philipp H. P. Harbach, Caroline Krauter, Dirk Rehn,        |
|   Jan Wenzel, Jan-Michael Mewes, Daniel Lefrancois, Andreas Dreuw            |
|                                                                              |
| Authors of earlier versions of ADCMAN:                                       |
| Andreas Dreuw, Jan Hendrik Starcke, Dirk Rehn, Michael Wormit                |
|                                                                              |
================================================================================


--------------------------------------------------------------------------------
                                   HF Summary                                   
--------------------------------------------------------------------------------
  Energy:                                                 -262.6294833073 a.u.
  Dip. moment [a.u.]:                  [   0.058440,    0.069362,   -0.023729]
  Total dipole [Debye]:                                         0.238292568496
  <r^2> [a.u.]:                        [ 210.404177,  207.084989,   28.547302]
  Total <r^2> [a.u.]:                                         446.036467567948
--------------------------------------------------------------------------------

--------------------------------------------------------------------------------
                                 MP(2) Summary                                  
--------------------------------------------------------------------------------
  MP energy contribution:                                   -1.0849253752 a.u.
  Total energy:                                           -263.7144086826 a.u.
  Dip. moment [a.u.]:                  [   0.053474,    0.066803,   -0.002515]
  Total dipole [Debye]:                                         0.217590128736
  <r^2> [a.u.]:                        [ 210.513435,  206.687915,   27.958631]
  Total <r^2> [a.u.]:                                         445.159981605830
--------------------------------------------------------------------------------
  Starting Davidson ... 
--------------------------------------------------------------------------------
   It NVec Conv  Avg. Norm  Max. Norm  Conv. states           Remark
--------------------------------------------------------------------------------
        10    0  3.473e-01  1.143e+00 11.0835 n n n n n n n n Guess.
    1   20    0  2.047e-01  8.250e-01 10.6495 n n n n n n n n 
    2   30    0  9.138e-02  4.935e-01 10.5478 n n n n n n n n 
    3   40    0  3.034e-02  1.847e-01 10.5351 n n n n n n n n 
    4   50    0  1.610e-02  9.073e-02 10.5332 n n n n n n n n 
    5   20    0  9.314e-03  5.631e-02 10.5327 n n n n n n n n Subspace collapsed.
    6   30    0  1.143e-02  7.572e-02 10.5322 n n n n n n n n 
    7   40    0  1.045e-02  8.682e-02 10.5320 n n n n n n n n 
    8   50    0  9.907e-03  7.533e-02 10.5320 n n n n n n n n 
    9   20    0  6.340e-03  4.720e-02 10.5320 n n n n n n n n Subspace collapsed.
   10   30    0  6.930e-03  5.305e-02 10.5320 n n n n n n n n 
   11   40    0  6.910e-03  5.301e-02 10.5320 n n n n n n n n 
   12   50    0  8.719e-03  6.338e-02 10.5320 n n n n n n n n 
   13   20    0  5.618e-03  4.317e-02 10.5320 n n n n n n n n Subspace collapsed.
   14   30    0  4.986e-03  3.725e-02 10.5320 n n n n n n n n 
   15   40    0  3.689e-03  2.624e-02 10.5320 n n n n n n n n 
   16   50    0  4.605e-03  3.313e-02 10.5320 n n n n n n n n 
   17   20    0  3.004e-03  2.184e-02 10.5320 n n n n n n n n Subspace collapsed.
   18   30    0  3.604e-03  2.591e-02 10.5320 n n n n n n n n 
   19   40    0  3.343e-03  2.403e-02 10.5320 n n n n n n n n 
   20   50    0  3.862e-03  2.958e-02 10.5320 n n n n n n n n 
   21   20    0  2.592e-03  1.945e-02 10.5320 n n n n n n n n Subspace collapsed.
   22   30    0  2.258e-03  1.818e-02 10.5320 n n n n n n n n 
   23   40    0  1.935e-03  1.655e-02 10.5320 n n n n n n n n 
   24   50    1  2.307e-03  1.912e-02 10.5320 n n n n n y n n 
   25   20    3  1.670e-03  1.438e-02 10.5320 n y n n y y n n Subspace collapsed.
   26   30    4  1.746e-03  1.437e-02 10.5320 y y n n y y n n 
   27   40    6  1.683e-03  1.399e-02 10.5320 y y y y y y n n 
   28   50    6  2.140e-03  1.747e-02 10.5320 y y y y y y n n 
   29   20    6  1.440e-03  1.212e-02 10.5320 y y y y y y n n Subspace collapsed.
   30   30    6  1.384e-03  1.136e-02 10.5320 y y y y y y n n 
   31   40    7  1.492e-03  1.227e-02 10.5320 y y y y y y y n 
   32   50    7  2.116e-03  1.638e-02 10.5320 y y y y y y y n 
   33   20    8  1.531e-03  1.220e-02 10.5320 y y y y y y y y Subspace collapsed.
   34   30    8  1.547e-03  1.182e-02 10.5320 y y y y y y y y 
   35   40    8  1.673e-03  1.302e-02 10.5320 y y y y y y y y 
   36   50    8  2.924e-03  2.196e-02 10.5320 y y y y y y y y 
   37   20    8  1.662e-03  1.272e-02 10.5320 y y y y y y y y Subspace collapsed.
   38   30    8  1.987e-03  1.490e-02 10.5320 y y y y y y y y 
   39   40    8  2.086e-03  1.564e-02 10.5320 y y y y y y y y 
   40   50    8  4.068e-03  3.057e-02 10.5320 y y y y y y y y 
   41   20    8  2.371e-03  1.830e-02 10.5320 y y y y y y y y Subspace collapsed.
   42   30    8  2.453e-03  1.948e-02 10.5320 y y y y y y y y 
   43   40    8  2.549e-03  2.035e-02 10.5320 y y y y y y y y 
   44   50    8  4.461e-03  3.609e-02 10.5320 y y y y y y y y 
   45   20    8  2.540e-03  2.120e-02 10.5320 y y y y y y y y Subspace collapsed.
   46   30    8  2.853e-03  2.443e-02 10.5320 y y y y y y y y 
   47   40    8  2.823e-03  2.437e-02 10.5320 y y y y y y y y 
   48   50    8  5.282e-03  4.592e-02 10.5320 y y y y y y y y 
   49   20    8  2.865e-03  2.544e-02 10.5320 y y y y y y y y Subspace collapsed.
   50   30    8  2.827e-03  2.546e-02 10.5320 y y y y y y y y 
   51   40    8  2.804e-03  2.528e-02 10.5320 y y y y y y y y 
   52   50    8  4.463e-03  4.017e-02 10.5320 y y y y y y y y 
   53   20    8  2.639e-03  2.402e-02 10.5320 y y y y y y y y Subspace collapsed.
   54   30    8  2.691e-03  2.465e-02 10.5320 y y y y y y y y 
   55   40    8  2.452e-03  2.240e-02 10.5320 y y y y y y y y 
   56   44    8  3.869e-03  3.507e-02 10.5320 y y y y y y y y 
   57   48    8  6.917e-03  5.673e-02 10.5320 y y y y y y y y 
   58   50    8  1.189e-02  1.141e-01 10.5320 y y y y y y y y 
   59   12    8  9.980e-03  9.511e-02 10.5320 y y y y y y y y Subspace collapsed.
   60   14    8  9.964e-03  9.397e-02 10.5320 y y y y y y y y 
   61   14    8  9.964e-03  9.397e-02 10.5320 y y y y y y y y 
   62   24    8  3.573e-03  3.200e-02 10.5320 y y y y y y y y 
   63   29    8  1.835e-03  1.477e-02 10.5320 y y y y y y y y 
   64   33    8  1.528e-03  1.221e-02 10.5320 y y y y y y y y 
   65   37    8  1.446e-03  1.262e-02 10.5320 y y y y y y y y 
   66   41    8  1.188e-03  9.550e-03 10.5320 y y y y y y y y 
   67   45    8  9.003e-04  6.485e-03 10.5320 y y y y y y y y 
   68   49    8  7.360e-04  5.337e-03 10.5320 y y y y y y y y 
   69   49    8  7.360e-04  5.337e-03 10.5320 y y y y y y y y 
   70   50    8  7.362e-04  5.342e-03 10.5320 y y y y y y y y 
   71   14    8  4.096e-04  2.912e-03 10.5320 y y y y y y y y Subspace collapsed.
   72   17    8  4.752e-04  3.414e-03 10.5320 y y y y y y y y 
   73   19    8  4.150e-04  3.124e-03 10.5320 y y y y y y y y 
   74   21    8  4.718e-04  3.379e-03 10.5320 y y y y y y y y 
   75   23    8  5.215e-04  3.829e-03 10.5320 y y y y y y y y 
   76   25    8  3.747e-04  2.925e-03 10.5320 y y y y y y y y 
   77   27    8  4.281e-04  3.306e-03 10.5320 y y y y y y y y 
   78   29    8  3.164e-04  2.453e-03 10.5320 y y y y y y y y 
   79   31    8  2.981e-04  2.359e-03 10.5320 y y y y y y y y 
   80   33    8  2.958e-04  2.499e-03 10.5320 y y y y y y y y 
   81   35    8  2.209e-04  1.954e-03 10.5320 y y y y y y y y 
   82   37    8  2.367e-04  2.150e-03 10.5320 y y y y y y y y 
   83   39    8  1.751e-04  1.635e-03 10.5320 y y y y y y y y 
   84   41    8  1.472e-04  1.398e-03 10.5320 y y y y y y y y 
   85   43    8  1.636e-04  1.585e-03 10.5320 y y y y y y y y 
   86   45    8  1.394e-04  1.359e-03 10.5320 y y y y y y y y 
   87   47    8  1.460e-04  1.429e-03 10.5320 y y y y y y y y 
   88   49    8  1.355e-04  1.332e-03 10.5320 y y y y y y y y 
   89   50    8  1.246e-04  1.231e-03 10.5320 y y y y y y y y 
   90   12    8  6.454e-05  6.372e-04 10.5320 y y y y y y y y Subspace collapsed.
   91   14    8  7.333e-05  7.260e-04 10.5320 y y y y y y y y 
   92   16    8  5.291e-05  5.245e-04 10.5320 y y y y y y y y 
   93   18    8  4.168e-05  4.135e-04 10.5320 y y y y y y y y 
   94   20    8  3.850e-05  3.824e-04 10.5320 y y y y y y y y 
   95   22    8  3.085e-05  3.066e-04 10.5320 y y y y y y y y 
   96   24    8  3.430e-05  3.408e-04 10.5320 y y y y y y y y 
   97   26    8  2.526e-05  2.513e-04 10.5320 y y y y y y y y 
   98   28    8  2.542e-05  2.530e-04 10.5320 y y y y y y y y 
   99   30    8  2.021e-05  2.013e-04 10.5320 y y y y y y y y 
  100   32    8  1.733e-05  1.728e-04 10.5320 y y y y y y y y 
  101   34    8  1.784e-05  1.779e-04 10.5320 y y y y y y y y 
  102   36    8  1.445e-05  1.442e-04 10.5320 y y y y y y y y 
  103   38    8  1.690e-05  1.686e-04 10.5320 y y y y y y y y 
  104   40    8  1.284e-05  1.282e-04 10.5320 y y y y y y y y 
  105   42    8  1.128e-05  1.126e-04 10.5320 y y y y y y y y 
  106   44    8  9.521e-06  9.507e-05 10.5320 y y y y y y y y 
  107   46    8  7.880e-06  7.870e-05 10.5320 y y y y y y y y 
  108   48    8  9.602e-06  9.591e-05 10.5320 y y y y y y y y 
  109   50    8  1.081e-05  1.080e-04 10.5320 y y y y y y y y 
  110   12    8  5.819e-06  5.814e-05 10.5320 y y y y y y y y Subspace collapsed.
  111   14    8  6.328e-06  6.322e-05 10.5320 y y y y y y y y 
  112   16    8  5.608e-06  5.603e-05 10.5320 y y y y y y y y 
  113   18    8  5.926e-06  5.921e-05 10.5320 y y y y y y y y 
  114   20    8  6.433e-06  6.428e-05 10.5320 y y y y y y y y 
  115   22    8  5.764e-06  5.761e-05 10.5320 y y y y y y y y 
  116   24    8  5.821e-06  5.818e-05 10.5320 y y y y y y y y 
  117   26    8  5.106e-06  5.104e-05 10.5320 y y y y y y y y 
  118   28    8  4.992e-06  4.990e-05 10.5320 y y y y y y y y 
  119   30    8  4.627e-06  4.626e-05 10.5320 y y y y y y y y 
  120   32    9  4.436e-06  4.435e-05 10.5320 y y y y y y y y 
  121   34    9  4.399e-06  4.398e-05 10.5320 y y y y y y y y 
  122   36    9  3.759e-06  3.759e-05 10.5320 y y y y y y y y 
  123   38    9  3.422e-06  3.421e-05 10.5320 y y y y y y y y 
  124   40    9  2.848e-06  2.848e-05 10.5320 y y y y y y y y 
  125   42    9  2.660e-06  2.659e-05 10.5320 y y y y y y y y 
  126   44    9  2.889e-06  2.888e-05 10.5320 y y y y y y y y 
  127   46    9  2.477e-06  2.477e-05 10.5320 y y y y y y y y 
  128   48    9  2.135e-06  2.135e-05 10.5320 y y y y y y y y 
  129   50    9  2.320e-06  2.320e-05 10.5320 y y y y y y y y 
  130   12    9  1.344e-06  1.344e-05 10.5320 y y y y y y y y Subspace collapsed.
  131   14    9  1.446e-06  1.446e-05 10.5320 y y y y y y y y 
  132   16    9  1.193e-06  1.193e-05 10.5320 y y y y y y y y 
  133   18    9  9.065e-07  9.065e-06 10.5320 y y y y y y y y 
  134   20    9  9.643e-07  9.643e-06 10.5320 y y y y y y y y 
  135   22    9  8.101e-07  8.101e-06 10.5320 y y y y y y y y 
  136   24    9  7.354e-07  7.353e-06 10.5320 y y y y y y y y 
  137   26    9  6.589e-07  6.589e-06 10.5320 y y y y y y y y 
  138   28    9  5.578e-07  5.577e-06 10.5320 y y y y y y y y 
  139   30    9  5.244e-07  5.244e-06 10.5320 y y y y y y y y 
  140   32    9  4.511e-07  4.510e-06 10.5320 y y y y y y y y 
  141   34    9  4.217e-07  4.217e-06 10.5320 y y y y y y y y 
  142   36    9  3.997e-07  3.997e-06 10.5320 y y y y y y y y 
  143   38    9  3.440e-07  3.440e-06 10.5320 y y y y y y y y 
  144   40    9  3.234e-07  3.234e-06 10.5320 y y y y y y y y 
  145   42    9  2.518e-07  2.518e-06 10.5320 y y y y y y y y 
  146   44    9  2.326e-07  2.326e-06 10.5320 y y y y y y y y 
  147   46    9  2.075e-07  2.075e-06 10.5320 y y y y y y y y 
  148   48    9  2.034e-07  2.034e-06 10.5320 y y y y y y y y 
  149   50    9  2.519e-07  2.519e-06 10.5320 y y y y y y y y 
--------------------------------------------------------------------------------
  Davidson Summary: 
 ------------------------------------------------------------
  State  0: excitation energy =  10.5320 a.u.   (converged)
  State  1: excitation energy =  10.5389 a.u.   (converged)
  State  2: excitation energy =  10.5414 a.u.   (converged)
  State  3: excitation energy =  10.5443 a.u.   (converged)
  State  4: excitation energy =  10.5575 a.u.   (converged)
  State  5: excitation energy =  10.5620 a.u.   (converged)
  State  6: excitation energy =  10.5726 a.u.   (converged)
  State  7: excitation energy =  10.5765 a.u.   (converged)
  State  8: excitation energy =  10.6768 a.u.   (converged)
  State  9: excitation energy =  10.6865 a.u.   (not converged)
 ------------------------------------------------------------


--------------------------------------------------------------------------------
                             Excited State Summary
--------------------------------------------------------------------------------
--------------------------------------------------------------------------------

  Excited state 1 (singlet, A)                                     [converged]
  ----------------------------------------------------------------------------
  Term symbol:  2 (1) A                                     R^2 =  1.46723e-13

  Total energy:                                           -253.1824168104 a.u.
  Excitation energy:                                             286.590074 eV

  Osc. strength:                                                0.031677372509
  Trans. dip. moment [a.u.]:           [   0.000131,    0.005982,    0.066901]
  <i|r^2|0> [a.u.]:                    [   0.001851,    0.029518,    0.030185]


  V1^2 = 0.7504, V2^2 = 0.2496

  Important amplitudes:
     core i     occ j       vir a       vir b          v   
    --------------------------------------------------------
     6 (A) A               23 (A) A                  0.4525
     6 (A) A               22 (A) A                 -0.3715
    --------------------------------------------------------
  ----------------------------------------------------------------------------


  Excited state 2 (singlet, A)                                     [converged]
  ----------------------------------------------------------------------------
  Term symbol:  3 (1) A                                     R^2 =  1.16277e-13

  Total energy:                                           -253.1754942526 a.u.
  Excitation energy:                                             286.778446 eV

  Osc. strength:                                                0.036529821607
  Trans. dip. moment [a.u.]:           [  -0.003814,   -0.002897,   -0.071947]
  <i|r^2|0> [a.u.]:                    [   0.008713,    0.013793,   -0.011430]


  V1^2 = 0.7499, V2^2 = 0.2501

  Important amplitudes:
     core i     occ j       vir a       vir b          v   
    --------------------------------------------------------
     5 (A) A               23 (A) A                 -0.5513
     5 (A) A               22 (A) A                  0.1843
    --------------------------------------------------------
  ----------------------------------------------------------------------------


  Excited state 3 (singlet, A)                                     [converged]
  ----------------------------------------------------------------------------
  Term symbol:  4 (1) A                                     R^2 =  3.75612e-13

  Total energy:                                           -253.1729904452 a.u.
  Excitation energy:                                             286.846579 eV

  Osc. strength:                                                0.042308478987
  Trans. dip. moment [a.u.]:           [   0.000953,   -0.003607,   -0.077501]
  <i|r^2|0> [a.u.]:                    [  -0.005062,    0.000964,    0.001856]


  V1^2 = 0.7402, V2^2 = 0.2598

  Important amplitudes:
     core i     occ j       vir a       vir b          v   
    --------------------------------------------------------
     3 (A) A               22 (A) A                  0.4818
     3 (A) A               23 (A) A                  0.3266
    --------------------------------------------------------
  ----------------------------------------------------------------------------


  Excited state 4 (singlet, A)                                     [converged]
  ----------------------------------------------------------------------------
  Term symbol:  5 (1) A                                     R^2 =  4.40259e-13

  Total energy:                                           -253.1701054925 a.u.
  Excitation energy:                                             286.925082 eV

  Osc. strength:                                                0.041080028441
  Trans. dip. moment [a.u.]:           [  -0.006121,    0.004879,   -0.076044]
  <i|r^2|0> [a.u.]:                    [  -0.032657,   -0.000992,   -0.006918]


  V1^2 = 0.7433, V2^2 = 0.2567

  Important amplitudes:
     core i     occ j       vir a       vir b          v   
    --------------------------------------------------------
     4 (A) A               22 (A) A                  0.5102
     4 (A) A               23 (A) A                  0.2800
    --------------------------------------------------------
  ----------------------------------------------------------------------------


  Excited state 5 (singlet, A)                                     [converged]
  ----------------------------------------------------------------------------
  Term symbol:  6 (1) A                                     R^2 =  5.09471e-13

  Total energy:                                           -253.1569120939 a.u.
  Excitation energy:                                             287.284093 eV

  Osc. strength:                                                0.003900227082
  Trans. dip. moment [a.u.]:           [   0.001632,   -0.000403,   -0.023480]
  <i|r^2|0> [a.u.]:                    [   0.002646,   -0.002788,   -0.011635]


  V1^2 = 0.7085, V2^2 = 0.2915

  Important amplitudes:
     core i     occ j       vir a       vir b          v   
    --------------------------------------------------------
     6 (A) A               22 (A) A                 -0.4605
     6 (A) A               23 (A) A                 -0.3681
    --------------------------------------------------------
  ----------------------------------------------------------------------------


  Excited state 6 (singlet, A)                                     [converged]
  ----------------------------------------------------------------------------
  Term symbol:  7 (1) A                                     R^2 =  2.99945e-13

  Total energy:                                           -253.1523858130 a.u.
  Excitation energy:                                             287.407259 eV

  Osc. strength:                                                0.000216703980
  Trans. dip. moment [a.u.]:           [   0.001088,   -0.001276,   -0.005288]
  <i|r^2|0> [a.u.]:                    [  -0.002785,    0.005879,   -0.001127]


  V1^2 = 0.6940, V2^2 = 0.3060

  Important amplitudes:
     core i     occ j       vir a       vir b          v   
    --------------------------------------------------------
     5 (A) A               22 (A) A                 -0.5577
     5 (A) A               23 (A) A                 -0.1816
    --------------------------------------------------------
  ----------------------------------------------------------------------------


  Excited state 7 (singlet, A)                                     [converged]
  ----------------------------------------------------------------------------
  Term symbol:  8 (1) A                                     R^2 =  6.04094e-13

  Total energy:                                           -253.1417855568 a.u.
  Excitation energy:                                             287.695707 eV

  Osc. strength:                                                0.001657217576
  Trans. dip. moment [a.u.]:           [   0.000935,   -0.002729,    0.015060]
  <i|r^2|0> [a.u.]:                    [  -0.004997,    0.001355,   -0.000090]


  V1^2 = 0.6921, V2^2 = 0.3079

  Important amplitudes:
     core i     occ j       vir a       vir b          v   
    --------------------------------------------------------
     3 (A) A               23 (A) A                 -0.4817
     3 (A) A               22 (A) A                  0.3319
    --------------------------------------------------------
  ----------------------------------------------------------------------------


  Excited state 8 (singlet, A)                                     [converged]
  ----------------------------------------------------------------------------
  Term symbol:  9 (1) A                                     R^2 =  5.57685e-13

  Total energy:                                           -253.1379466394 a.u.
  Excitation energy:                                             287.800169 eV

  Osc. strength:                                                0.002989444760
  Trans. dip. moment [a.u.]:           [   0.002198,   -0.003391,   -0.020190]
  <i|r^2|0> [a.u.]:                    [   0.009542,   -0.002403,   -0.003353]


  V1^2 = 0.7000, V2^2 = 0.3000

  Important amplitudes:
     core i     occ j       vir a       vir b          v   
    --------------------------------------------------------
     4 (A) A               23 (A) A                  0.5127
     4 (A) A               22 (A) A                 -0.2872
    --------------------------------------------------------
  ----------------------------------------------------------------------------


  Excited state 9 (singlet, A)                                     [converged]
  ----------------------------------------------------------------------------
  Term symbol:  10 (1) A                                    R^2 =  9.58575e-09

  Total energy:                                           -253.0376213544 a.u.
  Excitation energy:                                             290.530159 eV

  Osc. strength:                                                0.022649089685
  Trans. dip. moment [a.u.]:           [  -0.056161,   -0.001531,    0.005063]
  <i|r^2|0> [a.u.]:                    [  -0.298802,   -0.005117,   -0.013338]


  V1^2 = 0.7611, V2^2 = 0.2389

  Important amplitudes:
     core i     occ j       vir a       vir b          v   
    --------------------------------------------------------
     4 (A) A               24 (A) A                  0.4491
     4 (A) A               25 (A) A                 -0.3677
    --------------------------------------------------------
  ----------------------------------------------------------------------------


  Excited state 10 (singlet, A)                                 [not converged]
  ----------------------------------------------------------------------------
  Term symbol:  11 (1) A                                    R^2 =  2.51913e-06

  Total energy:                                           -253.0279508647 a.u.
  Excitation energy:                                             290.793306 eV



  V1^2 = 0.7555, V2^2 = 0.2445

  Important amplitudes:
     core i     occ j       vir a       vir b          v   
    --------------------------------------------------------
     3 (A) A               24 (A) A                 -0.4292
     3 (A) A               25 (A) A                 -0.3830
    --------------------------------------------------------
  ----------------------------------------------------------------------------


--------------------------------------------------------------------------------
  Time of ADC calculation:  CPU 7546.34 s  wall 7546.44 s
================================================================================
********************************************************************************
 FANOMAN: Finished probe state ADC calculation.
********************************************************************************
********************************************************************************
 FANOMAN: Performing pump state ADC calculation.
********************************************************************************
================================================================================
|                                                                              |
|                                 A D C  M A N                                 |
|                                                                              |
 ------------------------------------------------------------------------------ 
|                                                                              |
| Components:                                                                  |
|                                                                              |
| - libvmm - 1.3-trunk                                                         |
|   Authors:                                                                   |
|   Evgeny Epifanovsky, Ilya Kaliman                                           |
|                                                                              |
| - libtensor - 2.5-trunk                                                      |
|   Authors:                                                                   |
|   Evgeny Epifanovsky, Michael Wormit, Dmitry Zuev, Sam Manzer,               |
|   Ilya Kaliman                                                               |
|                                                                              |
| - libwfa - 1.1-beta                                                          |
|   Authors:                                                                   |
|   Felix Plasser, Stefanie Baeppler, Benjamin Thomitzni, Michael Wormit       |
|                                                                              |
| - libadc - 1.0-beta                                                          |
|   Authors:                                                                   |
|   Michael Wormit, Philipp H. P. Harbach, Caroline Krauter, Dirk Rehn,        |
|   Matthias Schneider, Jan Wenzel                                             |
|                                                                              |
| - adcman - 2.5-core_valence                                                  |
|   Authors:                                                                   |
|   Michael Wormit, Philipp H. P. Harbach, Caroline Krauter, Dirk Rehn,        |
|   Jan Wenzel, Jan-Michael Mewes, Daniel Lefrancois, Andreas Dreuw            |
|                                                                              |
| Authors of earlier versions of ADCMAN:                                       |
| Andreas Dreuw, Jan Hendrik Starcke, Dirk Rehn, Michael Wormit                |
|                                                                              |
================================================================================


--------------------------------------------------------------------------------
                                   HF Summary                                   
--------------------------------------------------------------------------------
  Energy:                                                 -262.6294833073 a.u.
  Dip. moment [a.u.]:                  [   0.058440,    0.069362,   -0.023729]
  Total dipole [Debye]:                                         0.238292568496
  <r^2> [a.u.]:                        [ 210.404177,  207.084989,   28.547302]
  Total <r^2> [a.u.]:                                         446.036467567948
--------------------------------------------------------------------------------

--------------------------------------------------------------------------------
                                 MP(2) Summary                                  
--------------------------------------------------------------------------------
  MP energy contribution:                                   -1.0849253752 a.u.
  Total energy:                                           -263.7144086826 a.u.
  Dip. moment [a.u.]:                  [   0.053474,    0.066803,   -0.002515]
  Total dipole [Debye]:                                         0.217590128736
  <r^2> [a.u.]:                        [ 210.513435,  206.687915,   27.958631]
  Total <r^2> [a.u.]:                                         445.159981605830
--------------------------------------------------------------------------------
  Starting Davidson ... 
--------------------------------------------------------------------------------
   It NVec Conv  Avg. Norm  Max. Norm  Conv. states           Remark
--------------------------------------------------------------------------------
         7    0  2.443e-01  7.009e-01  0.3378 n n n n n n n   Guess.
    1   14    0  1.006e-01  4.843e-01  0.1621 n n n n n n n   
    2   21    0  2.440e-02  9.218e-02  0.1488 n n n n n n n   
    3   28    0  1.201e-02  4.701e-02  0.1473 n n n n n n n   
    4   35    0  8.440e-03  4.594e-02  0.1469 n n n n n n n   
    5   14    0  5.263e-03  3.088e-02  0.1468 n n n n n n n   Subspace collapsed.
    6   21    0  2.012e-02  1.382e-01  0.1468 n n n n n n n   
    7   28    0  2.291e-02  1.361e-01  0.1468 n n n n n n n   
    8   35    0  7.589e-03  4.389e-02  0.1468 n n n n n n n   
    9   14    0  3.464e-03  2.052e-02  0.1468 n n n n n n n   Subspace collapsed.
   10   21    0  2.461e-03  1.431e-02  0.1468 n n n n n n n   
   11   28    0  1.521e-03  8.302e-03  0.1468 n n n n n n n   
   12   35    0  9.555e-04  4.640e-03  0.1468 n n n n n n n   
   13   14    0  4.628e-04  2.334e-03  0.1468 n n n n n n n   Subspace collapsed.
   14   21    0  4.235e-04  2.320e-03  0.1468 n n n n n n n   
   15   28    0  2.479e-04  1.497e-03  0.1468 n n n n n n n   
   16   35    0  2.305e-04  1.493e-03  0.1468 n n n n n n n   
   17   14    2  1.220e-04  7.913e-04  0.1468 y y n n n n n   Subspace collapsed.
   18   21    3  1.255e-04  8.300e-04  0.1468 y y y n n n n   
   19   28    3  8.337e-05  5.653e-04  0.1468 y y y n n n n   
   20   35    3  9.427e-05  6.500e-04  0.1468 y y y n n n n   
   21   14    3  4.552e-05  3.144e-04  0.1468 y y y n n n n   Subspace collapsed.
   22   21    3  5.024e-05  3.485e-04  0.1468 y y y n n n n   
   23   28    3  3.639e-05  2.538e-04  0.1468 y y y n n n n   
   24   35    3  5.566e-05  3.891e-04  0.1468 y y y n n n n   
   25   14    3  2.382e-05  1.664e-04  0.1468 y y y n n n n   Subspace collapsed.
   26   21    3  2.503e-05  1.750e-04  0.1468 y y y n n n n   
   27   28    4  1.878e-05  1.314e-04  0.1468 y y y y n n n   
   28   35    4  2.567e-05  1.797e-04  0.1468 y y y y n n n   
   29   14    5  1.180e-05  8.259e-05  0.1468 y y y y n y n   Subspace collapsed.
   30   21    5  1.470e-05  1.029e-04  0.1468 y y y y n y n   
   31   28    6  1.169e-05  8.185e-05  0.1468 y y y y y y n   
   32   35    6  1.464e-05  1.025e-04  0.1468 y y y y y y n   
   33   14    6  8.079e-06  5.655e-05  0.1468 y y y y y y n   Subspace collapsed.
   34   21    6  9.368e-06  6.557e-05  0.1468 y y y y y y n   
   35   28    6  6.439e-06  4.507e-05  0.1468 y y y y y y n   
   36   35    6  9.482e-06  6.637e-05  0.1468 y y y y y y n   
   37   14    6  4.150e-06  2.905e-05  0.1468 y y y y y y n   Subspace collapsed.
   38   21    6  6.079e-06  4.255e-05  0.1468 y y y y y y n   
   39   27    6  4.425e-06  3.097e-05  0.1468 y y y y y y n   
   40   32    6  6.507e-06  4.555e-05  0.1468 y y y y y y n   
   41   35    6  5.098e-06  3.569e-05  0.1468 y y y y y y n   
   42   11    6  3.196e-06  2.237e-05  0.1468 y y y y y y n   Subspace collapsed.
   43   15    6  2.636e-06  1.845e-05  0.1468 y y y y y y n   
   44   19    6  2.396e-06  1.678e-05  0.1468 y y y y y y n   
   45   23    6  1.782e-06  1.248e-05  0.1468 y y y y y y n   
   46   27    6  2.045e-06  1.432e-05  0.1468 y y y y y y n   
   47   31    6  2.253e-06  1.577e-05  0.1468 y y y y y y n   
   48   35    6  1.291e-06  9.040e-06  0.1468 y y y y y y n   
   49   11    6  8.473e-07  5.931e-06  0.1468 y y y y y y n   Subspace collapsed.
   50   15    6  6.288e-07  4.402e-06  0.1468 y y y y y y n   
   51   19    6  4.319e-07  3.023e-06  0.1468 y y y y y y n   
   52   23    6  4.882e-07  3.417e-06  0.1468 y y y y y y n   
   53   27    6  4.462e-07  3.123e-06  0.1468 y y y y y y n   
   54   31    6  3.626e-07  2.538e-06  0.1468 y y y y y y n   
   55   35    6  3.437e-07  2.406e-06  0.1468 y y y y y y n   
   56    9    6  1.942e-07  1.359e-06  0.1468 y y y y y y n   Subspace collapsed.
   57   12    6  2.115e-07  1.481e-06  0.1468 y y y y y y n   
   58   13    6  1.749e-07  1.224e-06  0.1468 y y y y y y n   
   59   14    6  1.587e-07  1.111e-06  0.1468 y y y y y y n   
   60   15    7  1.419e-07  9.932e-07  0.1468 y y y y y y y   Converged.
--------------------------------------------------------------------------------
  Davidson Summary: 
 ------------------------------------------------------------
  State  0: excitation energy =   0.1468 a.u.   (converged)
  State  1: excitation energy =   0.1551 a.u.   (converged)
  State  2: excitation energy =   0.1711 a.u.   (converged)
  State  3: excitation energy =   0.2159 a.u.   (converged)
  State  4: excitation energy =   0.2248 a.u.   (converged)
  State  5: excitation energy =   0.2296 a.u.   (converged)
  State  6: excitation energy =   0.2697 a.u.   (converged)
 ------------------------------------------------------------


--------------------------------------------------------------------------------
                             Excited State Summary
--------------------------------------------------------------------------------
--------------------------------------------------------------------------------

  Excited state 1 (singlet, A)                                     [converged]
  ----------------------------------------------------------------------------
  Term symbol:  2 (1) A                                     R^2 =  3.09156e-13

  Total energy:                                           -263.5675914024 a.u.
  Excitation energy:                                               3.995101 eV

  Osc. strength:                                                0.009003198182
  Trans. dip. moment [a.u.]:           [  -0.209472,   -0.089406,   -0.200279]
  <i|r^2|0> [a.u.]:                    [  -0.165423,   -0.248742,    0.208301]


  V1^2 = 0.9052, V2^2 = 0.0948

  Important amplitudes:
      occ i      occ j       vir a       vir b          v   
    ---------------------------------------------------------
     20 (A) A               22 (A) A                 -0.6109
     21 (A) A               22 (A) A                 -0.2553
    ---------------------------------------------------------
  ----------------------------------------------------------------------------


  Excited state 2 (singlet, A)                                     [converged]
  ----------------------------------------------------------------------------
  Term symbol:  3 (1) A                                     R^2 =  2.70131e-13

  Total energy:                                           -263.5593015434 a.u.
  Excitation energy:                                               4.220680 eV

  Osc. strength:                                                0.002285421552
  Trans. dip. moment [a.u.]:           [  -0.007793,   -0.139733,   -0.050157]
  <i|r^2|0> [a.u.]:                    [  -0.237367,    0.167843,    0.008188]


  V1^2 = 0.8921, V2^2 = 0.1079

  Important amplitudes:
      occ i      occ j       vir a       vir b          v   
    ---------------------------------------------------------
     20 (A) A               23 (A) A                  0.6361
     21 (A) A               23 (A) A                  0.1666
    ---------------------------------------------------------
  ----------------------------------------------------------------------------


  Excited state 3 (singlet, A)                                     [converged]
  ----------------------------------------------------------------------------
  Term symbol:  4 (1) A                                     R^2 =  3.79924e-13

  Total energy:                                           -263.5433035283 a.u.
  Excitation energy:                                               4.656008 eV

  Osc. strength:                                                0.044141815908
  Trans. dip. moment [a.u.]:           [  -0.531848,   -0.318719,    0.050269]
  <i|r^2|0> [a.u.]:                    [   0.197189,   -0.033782,   -0.058599]


  V1^2 = 0.8917, V2^2 = 0.1083

  Important amplitudes:
      occ i      occ j       vir a       vir b          v   
    ---------------------------------------------------------
     21 (A) A               22 (A) A                 -0.5075
     19 (A) A               23 (A) A                  0.2775
    ---------------------------------------------------------
  ----------------------------------------------------------------------------


  Excited state 4 (singlet, A)                                     [converged]
  ----------------------------------------------------------------------------
  Term symbol:  5 (1) A                                     R^2 =  3.70627e-13

  Total energy:                                           -263.4985096782 a.u.
  Excitation energy:                                               5.874911 eV

  Osc. strength:                                                0.000515822779
  Trans. dip. moment [a.u.]:           [   0.040971,    0.042026,   -0.011787]
  <i|r^2|0> [a.u.]:                    [  -0.031905,    0.003534,   -0.005124]


  V1^2 = 0.9002, V2^2 = 0.0998

  Important amplitudes:
      occ i      occ j       vir a       vir b          v   
    ---------------------------------------------------------
     18 (A) A               22 (A) A                  0.6454
     19 (A) A               22 (A) A                  0.1105
    ---------------------------------------------------------
  ----------------------------------------------------------------------------


  Excited state 5 (singlet, A)                                     [converged]
  ----------------------------------------------------------------------------
  Term symbol:  6 (1) A                                     R^2 =  1.81906e-12

  Total energy:                                           -263.4896456617 a.u.
  Excitation energy:                                               6.116113 eV

  Osc. strength:                                                0.016766173770
  Trans. dip. moment [a.u.]:           [   0.011287,   -0.333866,   -0.017272]
  <i|r^2|0> [a.u.]:                    [  -0.023578,    0.015465,   -0.007591]


  V1^2 = 0.8746, V2^2 = 0.1254

  Important amplitudes:
      occ i      occ j       vir a       vir b          v   
    ---------------------------------------------------------
     18 (A) A               23 (A) A                 -0.6115
     21 (A) A               23 (A) A                  0.1717
    ---------------------------------------------------------
  ----------------------------------------------------------------------------


  Excited state 6 (singlet, A)                                     [converged]
  ----------------------------------------------------------------------------
  Term symbol:  7 (1) A                                     R^2 =  1.72297e-12

  Total energy:                                           -263.4847686622 a.u.
  Excitation energy:                                               6.248823 eV

  Osc. strength:                                                0.167481690048
  Trans. dip. moment [a.u.]:           [   0.738003,   -0.740580,   -0.029632]
  <i|r^2|0> [a.u.]:                    [  -0.229010,    0.168170,   -0.041815]


  V1^2 = 0.9272, V2^2 = 0.0728

  Important amplitudes:
      occ i      occ j       vir a       vir b          v   
    ---------------------------------------------------------
     21 (A) A               23 (A) A                  0.5808
     21 (A) A               22 (A) A                  0.1860
    ---------------------------------------------------------
  ----------------------------------------------------------------------------


  Excited state 7 (singlet, A)                                     [converged]
  ----------------------------------------------------------------------------
  Term symbol:  8 (1) A                                     R^2 =  9.93155e-07

  Total energy:                                           -263.4447000587 a.u.
  Excitation energy:                                               7.339145 eV

  Osc. strength:                                                0.428246770945
  Trans. dip. moment [a.u.]:           [  -1.059966,   -1.119608,   -0.068326]
  <i|r^2|0> [a.u.]:                    [   0.225777,   -0.092862,    0.022115]


  V1^2 = 0.9030, V2^2 = 0.0970

  Important amplitudes:
      occ i      occ j       vir a       vir b          v   
    ---------------------------------------------------------
     19 (A) A               23 (A) A                 -0.4888
     19 (A) A               22 (A) A                 -0.2807
    ---------------------------------------------------------
  ----------------------------------------------------------------------------


--------------------------------------------------------------------------------
  Time of ADC calculation:  CPU 1733.88 s  wall 1733.90 s
================================================================================
********************************************************************************
 FANOMAN: Finished pump state ADC calculation.
********************************************************************************
********************************************************************************
 FANOMAN: Performing computation of pump <-> probe transitions.
********************************************************************************
--------------------------------------------------------------------------------
 Computing couplings for irreps A -- A
--------------------------------------------------------------------------------
 ---------------------------------------------------------------------------------------------------------
 Couplings for probe state 2 (1) A
 ---------------------------------------------------------------------------------------------------------
      pumped
      state #       E_c - E_b         overlap      osc. strength        dx           dy           dz     
 ---------------------------------------------------------------------------------------------------------
        2 (1) A   1.03851746e+01  3.99290984e-05  1.94524077e-03  [-1.1362e-02,  1.1609e-02,  4.1364e-03]
        3 (1) A   1.03768847e+01  9.23002595e-05  2.61269728e-03  [-1.3377e-02,  1.3862e-02,  2.5638e-03]
        4 (1) A   1.03608867e+01  2.82231664e-05  2.31069469e-03  [ 4.7325e-03, -3.2382e-03,  1.7368e-02]
        5 (1) A   1.03160929e+01 -2.61471573e-04  5.46515148e-04  [ 6.1387e-03,  5.9625e-03,  2.4961e-03]
        6 (1) A   1.03072289e+01 -3.29570821e-04  9.26304030e-04  [ 5.5954e-03,  5.4601e-03,  8.5839e-03]
        7 (1) A   1.03023519e+01  2.49636509e-04  1.63053184e-03  [-2.2034e-03, -4.1409e-04,  1.5244e-02]
        8 (1) A   1.02622832e+01  1.71180180e-04  1.40092603e-03  [ 5.6914e-04,  1.3472e-04,  1.4298e-02]
 ---------------------------------------------------------------------------------------------------------
 ---------------------------------------------------------------------------------------------------------
 Couplings for probe state 3 (1) A
 ---------------------------------------------------------------------------------------------------------
      pumped
      state #       E_c - E_b         overlap      osc. strength        dx           dy           dz     
 ---------------------------------------------------------------------------------------------------------
        2 (1) A   1.03920971e+01  1.09663972e-05  4.82306127e-04  [-5.4597e-03,  5.8823e-03,  2.2819e-03]
        3 (1) A   1.03838073e+01 -4.82226258e-05  3.90800713e-03  [-1.6858e-02,  1.6322e-02,  3.7314e-03]
        4 (1) A   1.03678093e+01  1.16738247e-05  5.46165577e-04  [ 4.4947e-03, -4.3282e-03,  6.3311e-03]
        5 (1) A   1.03230154e+01 -1.84432674e-04  2.86815118e-04  [-4.6579e-03, -3.3467e-03,  2.9630e-03]
        6 (1) A   1.03141514e+01 -4.59922645e-04  1.15263718e-03  [-6.9897e-03, -6.4127e-03,  8.8120e-03]
        7 (1) A   1.03092744e+01  1.45608105e-04  3.46978474e-03  [ 6.1781e-03, -7.1022e-05,  2.1603e-02]
        8 (1) A   1.02692058e+01  6.84472589e-05  1.93150363e-03  [ 4.5626e-03,  2.0112e-03,  1.6040e-02]
 ---------------------------------------------------------------------------------------------------------
 ---------------------------------------------------------------------------------------------------------
 Couplings for probe state 4 (1) A
 ---------------------------------------------------------------------------------------------------------
      pumped
      state #       E_c - E_b         overlap      osc. strength        dx           dy           dz     
 ---------------------------------------------------------------------------------------------------------
        2 (1) A   1.03946010e+01 -4.52035111e-05  3.84846232e-03  [ 5.2553e-03, -2.1799e-02,  7.2489e-03]
        3 (1) A   1.03863111e+01  5.89972904e-05  1.92031596e-03  [-5.1876e-03,  1.5813e-02, -5.9832e-04]
        4 (1) A   1.03703131e+01  2.14937081e-05  1.32396812e-03  [-1.2181e-03,  4.7002e-03,  1.2959e-02]
        5 (1) A   1.03255192e+01  3.62941981e-04  9.15932073e-04  [ 1.0222e-02,  3.9378e-03, -3.6135e-03]
        6 (1) A   1.03166552e+01 -3.52992542e-04  4.48895709e-04  [-6.5549e-03, -3.8650e-03, -2.7133e-03]
        7 (1) A   1.03117782e+01  3.73649887e-05  3.50224460e-03  [ 2.6300e-03, -3.6062e-03, -2.2125e-02]
        8 (1) A   1.02717096e+01  3.81400535e-05  2.84474148e-03  [ 3.7946e-03,  5.0825e-03,  1.9370e-02]
 ---------------------------------------------------------------------------------------------------------
 ---------------------------------------------------------------------------------------------------------
 Couplings for probe state 5 (1) A
 ---------------------------------------------------------------------------------------------------------
      pumped
      state #       E_c - E_b         overlap      osc. strength        dx           dy           dz     
 ---------------------------------------------------------------------------------------------------------
        2 (1) A   1.03974859e+01 -2.99186075e-06  3.70930384e-03  [-6.9081e-03,  2.1989e-02, -1.9682e-03]
        3 (1) A   1.03891961e+01  3.15759977e-05  1.11461102e-03  [ 4.2274e-03, -1.1853e-02, -1.6016e-03]
        4 (1) A   1.03731980e+01  9.46178120e-06  1.46749173e-03  [ 4.6095e-04, -1.7604e-03, -1.4453e-02]
        5 (1) A   1.03284042e+01 -3.88935580e-04  7.56824823e-04  [ 8.2345e-03,  5.5789e-03,  3.3142e-03]
        6 (1) A   1.03195402e+01  3.21561931e-04  2.55488826e-04  [-4.3456e-03, -3.7545e-03,  2.0385e-03]
        7 (1) A   1.03146632e+01 -2.58071991e-06  2.54224265e-03  [ 1.6653e-03, -1.8055e-03,  1.9070e-02]
        8 (1) A   1.02745946e+01 -7.17561281e-05  1.83095618e-03  [-2.2477e-03, -2.5537e-04, -1.6192e-02]
 ---------------------------------------------------------------------------------------------------------
 ---------------------------------------------------------------------------------------------------------
 Couplings for probe state 6 (1) A
 ---------------------------------------------------------------------------------------------------------
      pumped
      state #       E_c - E_b         overlap      osc. strength        dx           dy           dz     
 ---------------------------------------------------------------------------------------------------------
        2 (1) A   1.04106793e+01  7.23403922e-05  3.40490094e-03  [-1.4660e-02,  1.4276e-02,  8.4776e-03]
        3 (1) A   1.04023894e+01 -1.02296538e-05  1.83091045e-03  [ 1.1008e-02, -1.1402e-02,  3.5839e-03]
        4 (1) A   1.03863914e+01  2.85964816e-05  7.85699247e-03  [ 2.9228e-03,  8.9431e-04,  3.3546e-02]
        5 (1) A   1.03415976e+01 -1.74321010e-04  5.00266037e-04  [ 5.6430e-03,  5.7789e-03, -2.7059e-03]
        6 (1) A   1.03327336e+01  2.04883415e-04  5.92710906e-04  [-4.2428e-03, -6.0739e-03, -5.5813e-03]
        7 (1) A   1.03278566e+01 -1.16186082e-04  3.04951942e-03  [-7.0405e-04, -1.3173e-03, -2.0992e-02]
        8 (1) A   1.02877880e+01 -8.78764180e-05  1.19400914e-03  [-2.6376e-03, -1.5943e-03, -1.2829e-02]
 ---------------------------------------------------------------------------------------------------------
 ---------------------------------------------------------------------------------------------------------
 Couplings for probe state 7 (1) A
 ---------------------------------------------------------------------------------------------------------
      pumped
      state #       E_c - E_b         overlap      osc. strength        dx           dy           dz     
 ---------------------------------------------------------------------------------------------------------
        2 (1) A   1.04152056e+01  4.59245789e-05  5.53221698e-03  [ 1.8288e-02, -1.7255e-02, -1.2828e-02]
        3 (1) A   1.04069157e+01  2.27733941e-05  6.25342786e-04  [-6.1392e-03,  5.8920e-03, -4.2105e-03]
        4 (1) A   1.03909177e+01 -5.55972004e-06  1.03899337e-02  [-6.6070e-03,  3.5031e-03, -3.7999e-02]
        5 (1) A   1.03461239e+01  2.49727545e-04  1.15801573e-03  [ 1.0585e-02,  6.9149e-03,  2.8352e-03]
        6 (1) A   1.03372598e+01 -9.04540745e-05  1.27155562e-04  [-2.2048e-03, -3.4038e-03,  1.4155e-03]
        7 (1) A   1.03323828e+01 -1.57527251e-05  1.51092153e-03  [ 9.3308e-04, -1.3703e-03,  1.4717e-02]
        8 (1) A   1.02923142e+01 -1.47145795e-06  8.03689434e-05  [ 2.2718e-03,  1.9201e-03,  1.6927e-03]
 ---------------------------------------------------------------------------------------------------------
 ---------------------------------------------------------------------------------------------------------
 Couplings for probe state 8 (1) A
 ---------------------------------------------------------------------------------------------------------
      pumped
      state #       E_c - E_b         overlap      osc. strength        dx           dy           dz     
 ---------------------------------------------------------------------------------------------------------
        2 (1) A   1.04258058e+01 -4.77571363e-05  2.71250997e-03  [ 2.3180e-03, -1.4572e-02,  1.3135e-02]
        3 (1) A   1.04175160e+01 -1.66574014e-05  4.17405628e-03  [ 5.6347e-03, -2.1596e-02,  1.0143e-02]
        4 (1) A   1.04015180e+01  1.83769693e-05  1.02048803e-02  [-2.4998e-03,  9.8816e-03,  3.6983e-02]
        5 (1) A   1.03567241e+01  1.22806242e-04  4.87796008e-04  [ 7.3560e-03,  4.0395e-03,  4.6992e-04]
        6 (1) A   1.03478601e+01  1.99341912e-04  8.32871926e-04  [ 8.3382e-03,  3.7739e-03,  6.0798e-03]
        7 (1) A   1.03429831e+01 -8.84406522e-05  2.59829141e-03  [-6.2111e-03,  2.1393e-03,  1.8267e-02]
        8 (1) A   1.03029145e+01 -1.12246125e-05  3.72580080e-04  [-2.9607e-03, -8.2660e-04,  6.6929e-03]
 ---------------------------------------------------------------------------------------------------------
 ---------------------------------------------------------------------------------------------------------
 Couplings for probe state 9 (1) A
 ---------------------------------------------------------------------------------------------------------
      pumped
      state #       E_c - E_b         overlap      osc. strength        dx           dy           dz     
 ---------------------------------------------------------------------------------------------------------
        2 (1) A   1.04296448e+01  4.10974938e-05  1.80323025e-03  [ 3.6345e-03, -1.3173e-02,  8.5205e-03]
        3 (1) A   1.04213549e+01 -6.97972269e-06  4.13820135e-03  [ 7.4564e-03, -2.2811e-02,  4.4398e-03]
        4 (1) A   1.04053569e+01 -2.71566679e-06  8.44772257e-03  [ 8.2243e-04,  3.9082e-03,  3.4668e-02]
        5 (1) A   1.03605630e+01  1.02367913e-04  2.81084920e-04  [-4.7268e-03, -4.2569e-03,  4.8123e-04]
        6 (1) A   1.03516990e+01  2.41456912e-04  6.81509562e-04  [-6.6554e-03, -4.6358e-03,  5.7418e-03]
        7 (1) A   1.03468220e+01 -1.21806670e-04  2.70374248e-03  [ 5.5513e-03, -1.2118e-03,  1.8965e-02]
        8 (1) A   1.03067534e+01 -2.45600895e-05  8.75924814e-05  [-1.3324e-04, -9.7784e-04,  3.4313e-03]
 ---------------------------------------------------------------------------------------------------------
 ---------------------------------------------------------------------------------------------------------
 Couplings for probe state 10 (1) A
 ---------------------------------------------------------------------------------------------------------
      pumped
      state #       E_c - E_b         overlap      osc. strength        dx           dy           dz     
 ---------------------------------------------------------------------------------------------------------
        2 (1) A   1.05299700e+01  2.38771428e-05  1.58996995e-05  [ 1.3379e-03, -5.0060e-05, -6.8744e-04]
        3 (1) A   1.05216802e+01  3.74802612e-07  1.09773858e-06  [-1.4652e-04,  3.1052e-04,  1.9649e-04]
        4 (1) A   1.05056822e+01  4.00446489e-05  3.34985142e-05  [ 2.0743e-03,  1.7510e-04, -6.7048e-04]
        5 (1) A   1.04608883e+01 -2.71331061e-05  1.31112204e-05  [-1.3006e-03,  1.2633e-04, -4.1536e-04]
        6 (1) A   1.04520243e+01 -4.51228493e-05  9.37527774e-06  [-1.0738e-03, -3.8136e-04,  2.1693e-04]
        7 (1) A   1.04471473e+01 -1.54580333e-04  3.68275356e-04  [-6.8695e-03, -2.2457e-03,  8.0245e-04]
        8 (1) A   1.04070787e+01  7.86624633e-05  1.14403706e-04  [ 3.9304e-03, -3.9935e-04,  9.3893e-04]
 ---------------------------------------------------------------------------------------------------------
********************************************************************************
 Pump-Probe Results
********************************************************************************
 ----------------------------------------------------------------
 Transitions from pumped state 2 (1) A
 ----------------------------------------------------------------
   probed state    E_pr - E_pu    osc. strength       overlap   
 ----------------------------------------------------------------
        2 (1) A   2.82594973e+02  1.94524077e-03  3.99290984e-05
        3 (1) A   2.82783345e+02  4.82306127e-04  1.09663972e-05
        4 (1) A   2.82851477e+02  3.84846232e-03 -4.52035111e-05
        5 (1) A   2.82929981e+02  3.70930384e-03 -2.99186075e-06
        6 (1) A   2.83288991e+02  3.40490094e-03  7.23403922e-05
        7 (1) A   2.83412158e+02  5.53221698e-03  4.59245789e-05
        8 (1) A   2.83700605e+02  2.71250997e-03 -4.77571363e-05
        9 (1) A   2.83805068e+02  1.80323025e-03  4.10974938e-05
       10 (1) A   2.86535057e+02  1.58996995e-05  2.38771428e-05
 ----------------------------------------------------------------
 ----------------------------------------------------------------
 Transitions from pumped state 3 (1) A
 ----------------------------------------------------------------
   probed state    E_pr - E_pu    osc. strength       overlap   
 ----------------------------------------------------------------
        2 (1) A   2.82369394e+02  2.61269728e-03  9.23002595e-05
        3 (1) A   2.82557767e+02  3.90800713e-03 -4.82226258e-05
        4 (1) A   2.82625899e+02  1.92031596e-03  5.89972904e-05
        5 (1) A   2.82704402e+02  1.11461102e-03  3.15759977e-05
        6 (1) A   2.83063413e+02  1.83091045e-03 -1.02296538e-05
        7 (1) A   2.83186579e+02  6.25342786e-04  2.27733941e-05
        8 (1) A   2.83475027e+02  4.17405628e-03 -1.66574014e-05
        9 (1) A   2.83579489e+02  4.13820135e-03 -6.97972269e-06
       10 (1) A   2.86309479e+02  1.09773858e-06  3.74802612e-07
 ----------------------------------------------------------------
 ----------------------------------------------------------------
 Transitions from pumped state 4 (1) A
 ----------------------------------------------------------------
   probed state    E_pr - E_pu    osc. strength       overlap   
 ----------------------------------------------------------------
        2 (1) A   2.81934066e+02  2.31069469e-03  2.82231664e-05
        3 (1) A   2.82122438e+02  5.46165577e-04  1.16738247e-05
        4 (1) A   2.82190570e+02  1.32396812e-03  2.14937081e-05
        5 (1) A   2.82269074e+02  1.46749173e-03  9.46178120e-06
        6 (1) A   2.82628085e+02  7.85699247e-03  2.85964816e-05
        7 (1) A   2.82751251e+02  1.03899337e-02 -5.55972004e-06
        8 (1) A   2.83039699e+02  1.02048803e-02  1.83769693e-05
        9 (1) A   2.83144161e+02  8.44772257e-03 -2.71566679e-06
       10 (1) A   2.85874151e+02  3.34985142e-05  4.00446489e-05
 ----------------------------------------------------------------
 ----------------------------------------------------------------
 Transitions from pumped state 5 (1) A
 ----------------------------------------------------------------
   probed state    E_pr - E_pu    osc. strength       overlap   
 ----------------------------------------------------------------
        2 (1) A   2.80715163e+02  5.46515148e-04 -2.61471573e-04
        3 (1) A   2.80903536e+02  2.86815118e-04 -1.84432674e-04
        4 (1) A   2.80971668e+02  9.15932073e-04  3.62941981e-04
        5 (1) A   2.81050171e+02  7.56824823e-04 -3.88935580e-04
        6 (1) A   2.81409182e+02  5.00266037e-04 -1.74321010e-04
        7 (1) A   2.81532348e+02  1.15801573e-03  2.49727545e-04
        8 (1) A   2.81820796e+02  4.87796008e-04  1.22806242e-04
        9 (1) A   2.81925258e+02  2.81084920e-04  1.02367913e-04
       10 (1) A   2.84655248e+02  1.31112204e-05 -2.71331061e-05
 ----------------------------------------------------------------
 ----------------------------------------------------------------
 Transitions from pumped state 6 (1) A
 ----------------------------------------------------------------
   probed state    E_pr - E_pu    osc. strength       overlap   
 ----------------------------------------------------------------
        2 (1) A   2.80473961e+02  9.26304030e-04 -3.29570821e-04
        3 (1) A   2.80662334e+02  1.15263718e-03 -4.59922645e-04
        4 (1) A   2.80730466e+02  4.48895709e-04 -3.52992542e-04
        5 (1) A   2.80808969e+02  2.55488826e-04  3.21561931e-04
        6 (1) A   2.81167980e+02  5.92710906e-04  2.04883415e-04
        7 (1) A   2.81291146e+02  1.27155562e-04 -9.04540745e-05
        8 (1) A   2.81579594e+02  8.32871926e-04  1.99341912e-04
        9 (1) A   2.81684056e+02  6.81509562e-04  2.41456912e-04
       10 (1) A   2.84414046e+02  9.37527774e-06 -4.51228493e-05
 ----------------------------------------------------------------
 ----------------------------------------------------------------
 Transitions from pumped state 7 (1) A
 ----------------------------------------------------------------
   probed state    E_pr - E_pu    osc. strength       overlap   
 ----------------------------------------------------------------
        2 (1) A   2.80341251e+02  1.63053184e-03  2.49636509e-04
        3 (1) A   2.80529624e+02  3.46978474e-03  1.45608105e-04
        4 (1) A   2.80597756e+02  3.50224460e-03  3.73649887e-05
        5 (1) A   2.80676259e+02  2.54224265e-03 -2.58071991e-06
        6 (1) A   2.81035270e+02  3.04951942e-03 -1.16186082e-04
        7 (1) A   2.81158436e+02  1.51092153e-03 -1.57527251e-05
        8 (1) A   2.81446884e+02  2.59829141e-03 -8.84406522e-05
        9 (1) A   2.81551346e+02  2.70374248e-03 -1.21806670e-04
       10 (1) A   2.84281336e+02  3.68275356e-04 -1.54580333e-04
 ----------------------------------------------------------------
 ----------------------------------------------------------------
 Transitions from pumped state 8 (1) A
 ----------------------------------------------------------------
   probed state    E_pr - E_pu    osc. strength       overlap   
 ----------------------------------------------------------------
        2 (1) A   2.79250929e+02  1.40092603e-03  1.71180180e-04
        3 (1) A   2.79439302e+02  1.93150363e-03  6.84472589e-05
        4 (1) A   2.79507434e+02  2.84474148e-03  3.81400535e-05
        5 (1) A   2.79585937e+02  1.83095618e-03 -7.17561281e-05
        6 (1) A   2.79944948e+02  1.19400914e-03 -8.78764180e-05
        7 (1) A   2.80068114e+02  8.03689434e-05 -1.47145795e-06
        8 (1) A   2.80356562e+02  3.72580080e-04 -1.12246125e-05
        9 (1) A   2.80461024e+02  8.75924814e-05 -2.45600895e-05
       10 (1) A   2.83191014e+02  1.14403706e-04  7.86624633e-05
 ----------------------------------------------------------------
********************************************************************************
 End of Pump-Probe Results
********************************************************************************
********************************************************************************
 FANOMAN: Finished computation of pump <-> probe transitions.
********************************************************************************
--------------------------------------------------------------------------------
 >>> fanoman shutting down. <<<
--------------------------------------------------------------------------------
 
 --------------------------------------------------------------
 
                    Orbital Energies (a.u.)
 --------------------------------------------------------------
 
 Alpha MOs
 -- Occupied --
-15.616 -15.610 -11.326 -11.322 -11.314 -11.300  -1.265  -1.196
 -1.019  -0.879  -0.867  -0.695  -0.674  -0.667  -0.584  -0.545
 -0.540  -0.502  -0.423  -0.407  -0.337
 -- Virtual --
  0.079   0.092   0.182   0.197   0.230   0.238   0.284   0.309
  0.410   0.417   0.427   0.511   0.557   0.629   0.636   0.665
  0.673   0.694   0.715   0.734   0.748   0.756   0.787   0.811
  0.850   0.863   0.884   0.937   0.976   1.015   1.059   1.069
  1.072   1.098   1.122   1.144   1.151   1.202   1.235   1.269
  1.347   1.363   1.388   1.405   1.450   1.533   1.590   1.678
  1.723   1.734   1.750   1.776   1.782   1.789   1.824   1.850
  1.889   1.906   1.962   2.021   2.023   2.093   2.106   2.131
  2.186   2.215   2.314   2.384   2.413   2.468   2.502   2.573
  2.622   2.683   2.703   2.741   2.808   2.935   3.000   3.016
  3.089   3.135   3.498  19.543  19.650  19.864  19.959  22.447
 22.499  22.534  22.586  22.749  22.850  23.201  23.228  23.367
 23.489  23.540  23.695  26.583  26.817  30.491  30.546  30.692
 30.795  30.998  31.216
 --------------------------------------------------------------
 
          Ground-State Mulliken Net Atomic Charges

     Atom                 Charge (a.u.)
  ----------------------------------------
      1 C                     0.026039
      2 C                     0.137404
      3 N                    -0.318205
      4 C                     0.027407
      5 C                     0.108886
      6 N                    -0.318228
      7 H                     0.110170
      8 H                     0.051836
      9 H                     0.112672
     10 H                     0.062019
  ----------------------------------------
  Sum of atomic charges =    -0.000000

 -----------------------------------------------------------------
                    Cartesian Multipole Moments
 -----------------------------------------------------------------
    Charge (ESU x 10^10)
                -0.0000
    Dipole Moment (Debye)
         X      -0.1485      Y      -0.1763      Z       0.0603
       Tot       0.2383
    Quadrupole Moments (Debye-Ang)
        XX     -29.5758     XY       7.2558     YY     -37.6628
        XZ      -0.4458     YZ      -0.4365     ZZ     -37.6794
    Octopole Moments (Debye-Ang^2)
       XXX      -1.6083    XXY      -0.5295    XYY      -0.4456
       YYY      -1.3365    XXZ      -0.9684    XYZ      -0.6100
       YYZ       0.1044    XZZ       0.3954    YZZ       0.1695
       ZZZ      -0.6069
    Hexadecapole Moments (Debye-Ang^3)
      XXXX    -235.6270   XXXY      11.6188   XXYY    -100.6937
      XYYY      30.3971   YYYY    -274.8404   XXXZ      -2.8630
      XXYZ      -0.9068   XYYZ      -1.5414   YYYZ      -3.0672
      XXZZ     -60.3670   XYZZ      -0.6788   YYZZ     -55.4586
      XZZZ      -0.5414   YZZZ      -0.7027   ZZZZ     -40.7731
 -----------------------------------------------------------------
Archival summary:
1\1\Knecht17\SP\HF\BasisUnspecified\244\tkaczun\TueDec2815:29:512021TueDec2815:29:512021\0\\#,HF,BasisUnspecified,\\0,1\N\C,1,1.3742\H,2,1.22941,1,117.682\C,1,1.38693,2,114.87,3,-176.892,0\H,4,1.07957,1,118.065,2,-174.66,0\C,2,1.47157,1,122.289,3,173.775,0\H,6,1.05006,2,117.112,1,-162.301,0\N,6,1.36422,2,123.751,1,-9.01951,0\C,8,1.43714,6,116.15,2,13.8427,0\H,9,1.17837,8,125.847,6,173.627,0\\HF=-262.629483\\@

 Total job time:  10074.54s(wall), 10074.39s(cpu) 
 Tue Dec 28 15:29:51 2021

        *************************************************************
        *                                                           *
        *  Thank you very much for using Q-Chem.  Have a nice day.  *
        *                                                           *
        *************************************************************


