Knecht18 192.168.1
Q-Chem Developer Version! Running on 192.168.1.*
                  Welcome to Q-Chem
     A Quantum Leap Into The Future Of Chemistry


 Q-Chem 5.0, Q-Chem, Inc., Pleasanton, CA (2017)

 Yihan Shao,  Zhengting Gan,  E. Epifanovsky,  A. T. B. Gilbert,  M. Wormit,  
 J. Kussmann,  A. W. Lange,  A. Behn,  Jia Deng,  Xintian Feng,  D. Ghosh,  
 M. Goldey,  P. R. Horn,  L. D. Jacobson,  I. Kaliman,  T. Kus,  A. Landau,  
 Jie Liu,  E. I. Proynov,  R. M. Richard,  R. P. Steele,  E. J. Sundstrom,  
 H. L. Woodcock III,  P. M. Zimmerman,  D. Zuev,  B. Albrecht,  E. Alguire,  
 S. A. Baeppler,  Z. Benda,  Y. A. Bernard,  E. J. Berquist,  K. B. Bravaya,  
 D. Casanova,  Chun-Min Chang,  Yunqing Chen,  A. Chien,  K. D. Closser,  
 M. P. Coons,  S. Dasgupta,  M. Diedenhofen,  Hainam Do,  R. G. Edgar,  
 Po-Tung Fang,  S. Fatehi,  Qingguo Feng,  Qinghui Ge,  A. Ghysels,  
 J. Gomes,  J. Gonthier,  A. Gunina,  M. W. D. Hanson-Heine,  
 P. H. P. Harbach,  A. W. Hauser,  J. E. Herr,  E. G. Hohenstein,  
 Z. C. Holden,  Kerwin Hui,  T.-C. Jagau,  Hyunjun Ji,  B. Kaduk,  
 K. Khistyaev,  Jaehoon Kim,  P. Klunzinger,  K. Koh,  D. Kosenkov,  
 T. Kowalczyk,  C. M. Krauter,  A. Kunitsa,  Ka Un Lao,  A. Laurent,  
 K. V. Lawler,  Joonho Lee,  D. Lefrancois,  S. Lehtola,  D. S. Levine,  
 Yi-Pei Li,  You-Sheng Lin,  Fenglai Liu,  E. Livshits,  A. Luenser,  
 P. Manohar,  E. Mansoor,  S. F. Manzer,  Shan-Ping Mao,  Yuezhi Mao,  
 N. Mardirossian,  A. V. Marenich,  L. A. Martinez-Martinez,  S. A. Maurer,  
 N. J. Mayhall,  S. C. McKenzie,  J.-M. Mewes,  A. F. Morrison,  K. Nanda,  
 T. S. Nguyen-Beck,  R. Olivares-Amaya,  J. A. Parkhill,  T. M. Perrine,  
 F. Plasser,  S. Prager,  A. Prociuk,  D. R. Rehn,  F. Rob,  M. Schneider,  
 N. Sergueev,  S. M. Sharada,  S. Sharma,  D. W. Small,  T. Stauch,  
 T. Stein,  Yu-Chuan Su,  A. J. W. Thom,  T. Tsuchimochi,  L. Vogt,  
 O. Vydrov,  M. A. Watson,  J. Wenzel,  M. de Wergifosse,  T. A. Wesolowski,  
 A. White,  J. Witte,  A. Yamada,  Jun Yang,  K. Yao,  S. Yeganeh,  
 S. R. Yost,  Zhi-Qiang You,  A. Zech,  Igor Ying Zhang,  Xing Zhang,  
 Yan Zhao,  Ying Zhu,  B. R. Brooks,  G. K. L. Chan,  C. J. Cramer,  
 M. S. Gordon,  W. J. Hehre,  A. Klamt,  M. W. Schmidt,  C. D. Sherrill,  
 D. G. Truhlar,  A. Aspuru-Guzik,  R. Baer,  A. T. Bell,  N. A. Besley,  
 Jeng-Da Chai,  A. Dreuw,  B. D. Dunietz,  T. R. Furlani,  Chao-Ping Hsu,  
 Yousung Jung,  Jing Kong,  D. S. Lambrecht,  WanZhen Liang,  C. Ochsenfeld,  
 V. A. Rassolov,  L. V. Slipchenko,  J. E. Subotnik,  T. Van Voorhis,  
 J. M. Herbert,  A. I. Krylov,  P. M. W. Gill,  M. Head-Gordon

 Contributors to earlier versions of Q-Chem not listed above: 
 R. D. Adamson,  B. Austin,  J. Baker,  G. J. O. Beran,  K. Brandhorst,  
 S. T. Brown,  E. F. C. Byrd,  A. K. Chakraborty,  C.-L. Cheng,  
 Siu Hung Chien,  D. M. Chipman,  D. L. Crittenden,  H. Dachsel,  
 R. A. DiStasio Jr.,  R. J. Doerksen,  A. D. Dutoi,  L. Fusti-Molnar,  
 W. A. Goddard III,  A. Golubeva-Zadorozhnaya,  S. R. Gwaltney,  G. Hawkins,  
 A. Heyden,  S. Hirata,  G. Kedziora,  F. J. Keil,  C. Kelley,  Jihan Kim,  
 R. A. King,  R. Z. Khaliullin,  P. P. Korambath,  W. Kurlancheek,  
 A. M. Lee,  M. S. Lee,  S. V. Levchenko,  Ching Yeh Lin,  D. Liotard,  
 R. C. Lochan,  I. Lotan,  P. E. Maslen,  N. Nair,  D. P. O'Neill,  
 D. Neuhauser,  E. Neuscamman,  C. M. Oana,  R. Olson,  B. Peters,  
 R. Peverati,  P. A. Pieniazek,  Y. M. Rhee,  J. Ritchie,  M. A. Rohrdanz,  
 E. Rosta,  N. J. Russ,  H. F. Schaefer III,  N. E. Schultz,  N. Shenvi,  
 A. C. Simmonett,  A. Sodt,  D. Stuck,  K. S. Thanthiriwatte,  V. Vanovschi,  
 Tao Wang,  A. Warshel,  C. F. Williams,  Q. Wu,  X. Xu,  W. Zhang

 Please cite Q-Chem as follows:
 Y. Shao et al., Mol. Phys. 113, 184-215 (2015)
 DOI: 10.1080/00268976.2014.952696

 Q-Chem 5.0.1 for Intel X86 EM64T Linux

 Parts of Q-Chem use Armadillo 5.200.1 (Boston Tea Smuggler).
 http://arma.sourceforge.net/

 Q-Chem begins on Tue Dec 28 12:51:05 2021  

Host: 
0

     Scratch files written to /lscratch/tkaczun/transient_absorption/Trajectories_10/16.0/TRAJ2_399066.Meister/qchem15578//
 
>>> fanoman::qchem_input_parser: Checking options in input section $fano_pump
 ------------------------------------------------------------
 
>>> fanoman::qchem_input_parser: Checking options in input section $fano_probe
 ------------------------------------------------------------

Checking the input file for inconsistencies... 	...done.

--------------------------------------------------------------
User input:
--------------------------------------------------------------
$comment
time = 16.0
$end

$molecule
0 1
c       -1.16309        0.70002        0.02992
c       -1.16564       -0.69543        0.08329
n       -0.01018       -1.47821       -0.05403
c        1.20805       -0.77683       -0.01003
c        1.14670        0.72820        0.01516
n       -0.01705        1.51342       -0.04641
h       -2.00802        1.30525       -0.12918
h       -2.06780       -1.30906       -0.11269
h        2.08021       -1.25560        0.07522
h        2.06395        1.29502        0.15175
$end

$rem
	JOBTYPE         SP
	METHOD          FANO
	basis cc-pCVDZ
	cc_symmetry FALSE
    SYM_TOL		4
	mem_total 50000
	threads 1
	!QSYS wt=12:00:00
	!QSYS mem=60.0gb
	!QSYS vmem=60.0gb
	!ADC_PRINT       6
	!FANO_PRINT      3
$end

$fano_pump
	METHOD                   ADC(2)
	EE_SINGLETS              7 
	ADC_DAVIDSON_MAXITER     150
$end

$fano_probe
	METHOD                   CVS-ADC(2)-x
	CC_REST_OCC              6
	EE_SINGLETS              10
	ADC_DAVIDSON_MAXITER     150
$end
--------------------------------------------------------------
 ----------------------------------------------------------------
             Standard Nuclear Orientation (Angstroms)
    I     Atom           X                Y                Z
 ----------------------------------------------------------------
    1      C       1.1512894866     0.7199555749     0.0345011301
    2      C      -0.0913375179     1.3548092076     0.0890406076
    3      N      -1.3128130093     0.6805433040    -0.0525653164
    4      C      -1.2401865018    -0.7234579493    -0.0143539530
    5      C       0.1289886594    -1.3513809619     0.0098478582
    6      N       1.3566363239    -0.6700006253    -0.0474009359
    7      H       2.0740574419     1.1992144434    -0.1214895923
    8      H      -0.2289034695     2.4379539399    -0.1025728070
    9      H      -2.0625044683    -1.2840233893     0.0675660721
   10      H       0.2180625357    -2.4264989725     0.1420462354
 ----------------------------------------------------------------
 Molecular Point Group                 C1    NOp =  1
 Largest Abelian Subgroup              C1    NOp =  1
 Nuclear Repulsion Energy =   200.9859296536 hartrees
 There are       21 alpha and       21 beta electrons
 Requested basis set is cc-pCVDZ
 There are 60 shells and 128 basis functions

 Total QAlloc Memory Limit  50000 MB
 Mega-Array Size        61 MB
 MEM_STATIC part        62 MB

                       Distance Matrix (Angstroms)
             C (  1)   C (  2)   N (  3)   C (  4)   C (  5)   N (  6)
   C (  2)  1.396473
   N (  3)  2.465955  1.402387
   C (  4)  2.793741  2.376918  1.406398
   C (  5)  2.310009  2.716299  2.492269  1.506491
   N (  6)  1.407428  2.493010  2.991648  2.597583  1.405231
   H (  7)  1.051438  2.181162  3.427049  3.833061  3.210308  2.003534
   H (  8)  2.207995  1.108532  2.065394  3.320392  3.807858  3.489464
   H (  9)  3.787545  3.293842  2.106179  0.998575  2.193288  3.475740
   H ( 10)  3.283695  3.794315  3.469174  2.247510  1.086871  2.101791
             H (  7)   H (  8)   H (  9)
   H (  8)  2.615045
   H (  9)  4.828391  4.152608
   H ( 10)  4.081662  4.891065  2.551820
 
 A cutoff of  1.0D-11 yielded   1766 shell pairs
 There are      8058 function pairs (      8877 Cartesian)
 Smallest overlap matrix eigenvalue = 2.37E-03

 Scale SEOQF with 1.000000e-01/1.000000e-01/1.000000e+00

 Standard Electronic Orientation quadrupole field applied
 Nucleus-field energy     =     0.0000000052 hartrees
 Guess from superposition of atomic densities
 Warning:  Energy on first SCF cycle will be non-variational
 SAD guess density has 42.000000 electrons
 A restricted Hartree-Fock SCF calculation will be
 performed using Pulay DIIS extrapolation
 SCF converges when DIIS error is below 1.0E-08
 ---------------------------------------
  Cycle       Energy         DIIS Error
 ---------------------------------------
    1    -264.2268055084      6.12E-02
    2    -262.5696483188      5.09E-03
    3    -262.6341085485      2.15E-03
    4    -262.6429648061      9.52E-04
    5    -262.6451969478      2.06E-04
    6    -262.6453448115      6.93E-05
    7    -262.6453766043      3.14E-05
    8    -262.6453828788      1.37E-05
    9    -262.6453838091      4.19E-06
   10    -262.6453839836      2.06E-06
   11    -262.6453840257      1.05E-06
   12    -262.6453840393      5.57E-07
   13    -262.6453840420      1.79E-07
   14    -262.6453840422      6.16E-08
   15    -262.6453840429      1.73E-08
   16    -262.6453840420      7.72E-09 Convergence criterion met
 ---------------------------------------
 SCF time:  CPU 19.63 s  wall 19.65 s
 SCF   energy in the final basis set = -262.64538404
 Total energy in the final basis set = -262.64538404
--------------------------------------------------------------------------------
 >>> This is fanoman. <<<
--------------------------------------------------------------------------------
********************************************************************************
 FANOMAN: Performing probe state ADC calculation.
********************************************************************************
================================================================================
|                                                                              |
|                                 A D C  M A N                                 |
|                                                                              |
 ------------------------------------------------------------------------------ 
|                                                                              |
| Components:                                                                  |
|                                                                              |
| - libvmm - 1.3-trunk                                                         |
|   Authors:                                                                   |
|   Evgeny Epifanovsky, Ilya Kaliman                                           |
|                                                                              |
| - libtensor - 2.5-trunk                                                      |
|   Authors:                                                                   |
|   Evgeny Epifanovsky, Michael Wormit, Dmitry Zuev, Sam Manzer,               |
|   Ilya Kaliman                                                               |
|                                                                              |
| - libwfa - 1.1-beta                                                          |
|   Authors:                                                                   |
|   Felix Plasser, Stefanie Baeppler, Benjamin Thomitzni, Michael Wormit       |
|                                                                              |
| - libadc - 1.0-beta                                                          |
|   Authors:                                                                   |
|   Michael Wormit, Philipp H. P. Harbach, Caroline Krauter, Dirk Rehn,        |
|   Matthias Schneider, Jan Wenzel                                             |
|                                                                              |
| - adcman - 2.5-core_valence                                                  |
|   Authors:                                                                   |
|   Michael Wormit, Philipp H. P. Harbach, Caroline Krauter, Dirk Rehn,        |
|   Jan Wenzel, Jan-Michael Mewes, Daniel Lefrancois, Andreas Dreuw            |
|                                                                              |
| Authors of earlier versions of ADCMAN:                                       |
| Andreas Dreuw, Jan Hendrik Starcke, Dirk Rehn, Michael Wormit                |
|                                                                              |
================================================================================


--------------------------------------------------------------------------------
                                   HF Summary                                   
--------------------------------------------------------------------------------
  Energy:                                                 -262.6453840420 a.u.
  Dip. moment [a.u.]:                  [   0.082576,    0.109397,   -0.052189]
  Total dipole [Debye]:                                         0.372780544168
  <r^2> [a.u.]:                        [ 210.143014,  198.918860,   28.152632]
  Total <r^2> [a.u.]:                                         437.214505004121
--------------------------------------------------------------------------------

--------------------------------------------------------------------------------
                                 MP(2) Summary                                  
--------------------------------------------------------------------------------
  MP energy contribution:                                   -1.0796763840 a.u.
  Total energy:                                           -263.7250604260 a.u.
  Dip. moment [a.u.]:                  [   0.046054,    0.071306,   -0.038251]
  Total dipole [Debye]:                                         0.236650524526
  <r^2> [a.u.]:                        [ 209.754369,  199.040127,   27.603272]
  Total <r^2> [a.u.]:                                         436.397767936780
--------------------------------------------------------------------------------
  Starting Davidson ... 
--------------------------------------------------------------------------------
   It NVec Conv  Avg. Norm  Max. Norm  Conv. states           Remark
--------------------------------------------------------------------------------
        10    0  3.499e-01  1.144e+00 11.0740 n n n n n n n n Guess.
    1   20    0  1.978e-01  7.482e-01 10.6430 n n n n n n n n 
    2   30    0  9.616e-02  6.674e-01 10.5417 n n n n n n n n 
    3   40    0  5.255e-02  4.841e-01 10.5293 n n n n n n n n 
    4   50    0  2.453e-02  2.075e-01 10.5275 n n n n n n n n 
    5   20    0  1.387e-02  1.180e-01 10.5270 n n n n n n n n Subspace collapsed.
    6   30    0  1.327e-02  1.037e-01 10.5266 n n n n n n n n 
    7   40    0  9.030e-03  7.353e-02 10.5265 n n n n n n n n 
    8   50    0  1.025e-02  9.328e-02 10.5264 n n n n n n n n 
    9   20    0  6.028e-03  5.462e-02 10.5264 n n n n n n n n Subspace collapsed.
   10   30    0  8.774e-03  8.429e-02 10.5264 n n n n n n n n 
   11   40    0  7.833e-03  7.614e-02 10.5264 n n n n n n n n 
   12   50    0  7.001e-03  6.717e-02 10.5264 n n n n n n n n 
   13   20    0  4.379e-03  4.185e-02 10.5264 n n n n n n n n Subspace collapsed.
   14   30    0  4.026e-03  3.742e-02 10.5264 n n n n n n n n 
   15   40    0  2.799e-03  2.484e-02 10.5264 n n n n n n n n 
   16   50    0  3.746e-03  3.325e-02 10.5264 n n n n n n n n 
   17   20    0  2.249e-03  2.016e-02 10.5264 n n n n n n n n Subspace collapsed.
   18   30    0  3.070e-03  2.819e-02 10.5264 n n n n n n n n 
   19   40    0  2.756e-03  2.530e-02 10.5264 n n n n n n n n 
   20   50    0  2.832e-03  2.572e-02 10.5264 n n n n n n n n 
   21   20    0  1.905e-03  1.722e-02 10.5264 n n n n n n n n Subspace collapsed.
   22   30    0  2.077e-03  1.837e-02 10.5264 n n n n n n n n 
   23   40    0  1.848e-03  1.627e-02 10.5264 n n n n n n n n 
   24   50    0  2.635e-03  2.331e-02 10.5264 n n n n n n n n 
   25   20    2  1.480e-03  1.309e-02 10.5264 y n y n n n n n Subspace collapsed.
   26   30    4  1.716e-03  1.524e-02 10.5264 y y y y n n n n 
   27   40    8  1.609e-03  1.437e-02 10.5264 y y y y y y y y 
   28   50    8  1.661e-03  1.488e-02 10.5264 y y y y y y y y 
   29   20    8  1.191e-03  1.062e-02 10.5264 y y y y y y y y Subspace collapsed.
   30   30    8  1.225e-03  1.087e-02 10.5264 y y y y y y y y 
   31   40    8  1.136e-03  1.013e-02 10.5264 y y y y y y y y 
   32   50    8  1.681e-03  1.511e-02 10.5264 y y y y y y y y 
   33   20    8  9.073e-04  8.149e-03 10.5264 y y y y y y y y Subspace collapsed.
   34   30    8  9.506e-04  8.571e-03 10.5264 y y y y y y y y 
   35   40    8  9.536e-04  8.641e-03 10.5264 y y y y y y y y 
   36   50    8  1.072e-03  9.779e-03 10.5264 y y y y y y y y 
   37   20    8  7.460e-04  6.796e-03 10.5264 y y y y y y y y Subspace collapsed.
   38   30    8  7.265e-04  6.631e-03 10.5264 y y y y y y y y 
   39   40    8  6.399e-04  5.860e-03 10.5264 y y y y y y y y 
   40   50    8  1.071e-03  9.879e-03 10.5264 y y y y y y y y 
   41   20    8  5.486e-04  5.063e-03 10.5264 y y y y y y y y Subspace collapsed.
   42   30    8  6.015e-04  5.570e-03 10.5264 y y y y y y y y 
   43   40    8  5.467e-04  5.089e-03 10.5264 y y y y y y y y 
   44   50    8  7.080e-04  6.627e-03 10.5264 y y y y y y y y 
   45   20    8  4.345e-04  4.066e-03 10.5264 y y y y y y y y Subspace collapsed.
   46   30    8  4.823e-04  4.523e-03 10.5264 y y y y y y y y 
   47   40    8  3.632e-04  3.413e-03 10.5264 y y y y y y y y 
   48   50    8  6.490e-04  6.137e-03 10.5264 y y y y y y y y 
   49   20    8  3.318e-04  3.137e-03 10.5264 y y y y y y y y Subspace collapsed.
   50   30    8  3.706e-04  3.513e-03 10.5264 y y y y y y y y 
   51   40    8  3.299e-04  3.138e-03 10.5264 y y y y y y y y 
   52   50    8  4.302e-04  4.110e-03 10.5264 y y y y y y y y 
   53   20    8  2.632e-04  2.513e-03 10.5264 y y y y y y y y Subspace collapsed.
   54   24    8  2.833e-04  2.709e-03 10.5264 y y y y y y y y 
   55   27    8  2.140e-04  2.050e-03 10.5264 y y y y y y y y 
   56   33    8  3.408e-04  3.274e-03 10.5264 y y y y y y y y 
   57   39    8  5.706e-04  5.535e-03 10.5264 y y y y y y y y 
   58   45    8  3.980e-04  3.886e-03 10.5264 y y y y y y y y 
   59   49    8  2.578e-04  2.524e-03 10.5264 y y y y y y y y 
   60   50    8  2.575e-04  2.521e-03 10.5264 y y y y y y y y 
   61   14    8  1.214e-04  1.188e-03 10.5264 y y y y y y y y Subspace collapsed.
   62   17    8  1.112e-04  1.089e-03 10.5264 y y y y y y y y 
   63   19    8  6.950e-05  6.808e-04 10.5264 y y y y y y y y 
   64   21    8  5.557e-05  5.443e-04 10.5264 y y y y y y y y 
   65   23    8  6.124e-05  6.010e-04 10.5264 y y y y y y y y 
   66   25    8  4.150e-05  4.079e-04 10.5264 y y y y y y y y 
   67   27    8  3.719e-05  3.661e-04 10.5264 y y y y y y y y 
   68   29    8  3.884e-05  3.828e-04 10.5264 y y y y y y y y 
   69   31    8  3.055e-05  3.014e-04 10.5264 y y y y y y y y 
   70   33    8  2.573e-05  2.540e-04 10.5264 y y y y y y y y 
   71   35    8  2.898e-05  2.865e-04 10.5264 y y y y y y y y 
   72   37    8  2.635e-05  2.610e-04 10.5264 y y y y y y y y 
   73   39    8  2.108e-05  2.089e-04 10.5264 y y y y y y y y 
   74   41    8  1.790e-05  1.776e-04 10.5264 y y y y y y y y 
   75   43    8  1.677e-05  1.665e-04 10.5264 y y y y y y y y 
   76   45    8  1.280e-05  1.272e-04 10.5264 y y y y y y y y 
   77   47    8  1.025e-05  1.019e-04 10.5264 y y y y y y y y 
   78   49    8  8.281e-06  8.236e-05 10.5264 y y y y y y y y 
   79   50    8  5.949e-06  5.919e-05 10.5264 y y y y y y y y 
   80   12    8  3.202e-06  3.186e-05 10.5264 y y y y y y y y Subspace collapsed.
   81   14    8  3.849e-06  3.831e-05 10.5264 y y y y y y y y 
   82   16    8  2.862e-06  2.849e-05 10.5264 y y y y y y y y 
   83   18    8  2.360e-06  2.350e-05 10.5264 y y y y y y y y 
   84   20    8  2.540e-06  2.529e-05 10.5264 y y y y y y y y 
   85   22    8  1.968e-06  1.960e-05 10.5264 y y y y y y y y 
   86   24    8  2.373e-06  2.365e-05 10.5264 y y y y y y y y 
   87   26    8  2.074e-06  2.067e-05 10.5264 y y y y y y y y 
   88   28    8  1.721e-06  1.716e-05 10.5264 y y y y y y y y 
   89   30    8  1.527e-06  1.523e-05 10.5264 y y y y y y y y 
   90   32    9  1.138e-06  1.136e-05 10.5264 y y y y y y y y 
   91   34    9  1.153e-06  1.150e-05 10.5264 y y y y y y y y 
   92   36    9  9.387e-07  9.368e-06 10.5264 y y y y y y y y 
   93   38    9  6.878e-07  6.865e-06 10.5264 y y y y y y y y 
   94   40    9  5.535e-07  5.525e-06 10.5264 y y y y y y y y 
   95   42    9  4.414e-07  4.406e-06 10.5264 y y y y y y y y 
   96   44    9  4.243e-07  4.237e-06 10.5264 y y y y y y y y 
   97   46    9  3.859e-07  3.853e-06 10.5264 y y y y y y y y 
   98   48    9  3.437e-07  3.432e-06 10.5264 y y y y y y y y 
   99   50    9  2.808e-07  2.804e-06 10.5264 y y y y y y y y 
  100   12    9  1.681e-07  1.679e-06 10.5264 y y y y y y y y Subspace collapsed.
  101   14    9  2.069e-07  2.066e-06 10.5264 y y y y y y y y 
  102   16    9  1.987e-07  1.985e-06 10.5264 y y y y y y y y 
  103   18    9  1.855e-07  1.853e-06 10.5264 y y y y y y y y 
  104   20    9  2.085e-07  2.083e-06 10.5264 y y y y y y y y 
  105   22    9  1.638e-07  1.637e-06 10.5264 y y y y y y y y 
  106   24    9  2.004e-07  2.002e-06 10.5264 y y y y y y y y 
  107   26    9  1.674e-07  1.673e-06 10.5264 y y y y y y y y 
  108   28    9  1.343e-07  1.343e-06 10.5264 y y y y y y y y 
  109   30    9  1.284e-07  1.283e-06 10.5264 y y y y y y y y 
  110   32   10  9.682e-08  9.678e-07 10.5264 y y y y y y y y Converged.
--------------------------------------------------------------------------------
  Davidson Summary: 
 ------------------------------------------------------------
  State  0: excitation energy =  10.5264 a.u.   (converged)
  State  1: excitation energy =  10.5292 a.u.   (converged)
  State  2: excitation energy =  10.5306 a.u.   (converged)
  State  3: excitation energy =  10.5335 a.u.   (converged)
  State  4: excitation energy =  10.5591 a.u.   (converged)
  State  5: excitation energy =  10.5604 a.u.   (converged)
  State  6: excitation energy =  10.5646 a.u.   (converged)
  State  7: excitation energy =  10.5674 a.u.   (converged)
  State  8: excitation energy =  10.6902 a.u.   (converged)
  State  9: excitation energy =  10.6972 a.u.   (converged)
 ------------------------------------------------------------


--------------------------------------------------------------------------------
                             Excited State Summary
--------------------------------------------------------------------------------
--------------------------------------------------------------------------------

  Excited state 1 (singlet, A)                                     [converged]
  ----------------------------------------------------------------------------
  Term symbol:  2 (1) A                                     R^2 =  5.21205e-13

  Total energy:                                           -253.1986328949 a.u.
  Excitation energy:                                             286.438661 eV

  Osc. strength:                                                0.025800417254
  Trans. dip. moment [a.u.]:           [   0.000341,    0.002852,    0.060566]
  <i|r^2|0> [a.u.]:                    [  -0.003480,   -0.007329,   -0.004745]


  V1^2 = 0.7412, V2^2 = 0.2588

  Important amplitudes:
     core i     occ j       vir a       vir b          v   
    --------------------------------------------------------
     4 (A) A               22 (A) A                 -0.5131
     4 (A) A               23 (A) A                 -0.2785
    --------------------------------------------------------
  ----------------------------------------------------------------------------


  Excited state 2 (singlet, A)                                     [converged]
  ----------------------------------------------------------------------------
  Term symbol:  3 (1) A                                     R^2 =  2.60035e-13

  Total energy:                                           -253.1958412742 a.u.
  Excitation energy:                                             286.514625 eV

  Osc. strength:                                                0.022277958103
  Trans. dip. moment [a.u.]:           [   0.007628,   -0.000746,    0.055812]
  <i|r^2|0> [a.u.]:                    [   0.032769,   -0.001252,    0.006564]


  V1^2 = 0.7435, V2^2 = 0.2565

  Important amplitudes:
     core i     occ j       vir a       vir b          v   
    --------------------------------------------------------
     6 (A) A               22 (A) A                 -0.4976
     6 (A) A               23 (A) A                 -0.2519
    --------------------------------------------------------
  ----------------------------------------------------------------------------


  Excited state 3 (singlet, A)                                     [converged]
  ----------------------------------------------------------------------------
  Term symbol:  4 (1) A                                     R^2 =  5.82956e-13

  Total energy:                                           -253.1944538657 a.u.
  Excitation energy:                                             286.552378 eV

  Osc. strength:                                                0.041234127993
  Trans. dip. moment [a.u.]:           [   0.002144,    0.006892,    0.076298]
  <i|r^2|0> [a.u.]:                    [   0.000735,   -0.035358,    0.001744]


  V1^2 = 0.7426, V2^2 = 0.2574

  Important amplitudes:
     core i     occ j       vir a       vir b          v   
    --------------------------------------------------------
     3 (A) A               22 (A) A                 -0.4821
     3 (A) A               23 (A) A                  0.3263
    --------------------------------------------------------
  ----------------------------------------------------------------------------


  Excited state 4 (singlet, A)                                     [converged]
  ----------------------------------------------------------------------------
  Term symbol:  5 (1) A                                     R^2 =  2.04691e-13

  Total energy:                                           -253.1915574457 a.u.
  Excitation energy:                                             286.631193 eV

  Osc. strength:                                                0.034312237067
  Trans. dip. moment [a.u.]:           [   0.001109,   -0.004258,   -0.069762]
  <i|r^2|0> [a.u.]:                    [  -0.005927,   -0.022515,   -0.023313]


  V1^2 = 0.7401, V2^2 = 0.2599

  Important amplitudes:
     core i     occ j       vir a       vir b          v   
    --------------------------------------------------------
     5 (A) A               22 (A) A                  0.5035
     5 (A) A               23 (A) A                 -0.2317
    --------------------------------------------------------
  ----------------------------------------------------------------------------


  Excited state 5 (singlet, A)                                     [converged]
  ----------------------------------------------------------------------------
  Term symbol:  6 (1) A                                     R^2 =  4.30297e-13

  Total energy:                                           -253.1659679821 a.u.
  Excitation energy:                                             287.327518 eV

  Osc. strength:                                                0.012248685696
  Trans. dip. moment [a.u.]:           [  -0.000698,   -0.000788,    0.041700]
  <i|r^2|0> [a.u.]:                    [   0.001400,   -0.000061,    0.009056]


  V1^2 = 0.7174, V2^2 = 0.2826

  Important amplitudes:
     core i     occ j       vir a       vir b          v   
    --------------------------------------------------------
     6 (A) A               23 (A) A                 -0.4970
     6 (A) A               22 (A) A                  0.2519
    --------------------------------------------------------
  ----------------------------------------------------------------------------


  Excited state 6 (singlet, A)                                     [converged]
  ----------------------------------------------------------------------------
  Term symbol:  7 (1) A                                     R^2 =  9.59142e-13

  Total energy:                                           -253.1646892990 a.u.
  Excitation energy:                                             287.362313 eV

  Osc. strength:                                                0.008053458552
  Trans. dip. moment [a.u.]:           [   0.002834,    0.000026,   -0.033703]
  <i|r^2|0> [a.u.]:                    [  -0.002709,   -0.001146,   -0.015048]


  V1^2 = 0.7241, V2^2 = 0.2759

  Important amplitudes:
     core i     occ j       vir a       vir b          v   
    --------------------------------------------------------
     5 (A) A               23 (A) A                 -0.5089
     5 (A) A               22 (A) A                 -0.2396
    --------------------------------------------------------
  ----------------------------------------------------------------------------


  Excited state 7 (singlet, A)                                     [converged]
  ----------------------------------------------------------------------------
  Term symbol:  8 (1) A                                     R^2 =  1.01616e-12

  Total energy:                                           -253.1604841104 a.u.
  Excitation energy:                                             287.476742 eV

  Osc. strength:                                                0.009876335048
  Trans. dip. moment [a.u.]:           [  -0.001537,   -0.001138,   -0.037398]
  <i|r^2|0> [a.u.]:                    [   0.007824,    0.002842,    0.002334]


  V1^2 = 0.7082, V2^2 = 0.2918

  Important amplitudes:
     core i     occ j       vir a       vir b          v   
    --------------------------------------------------------
     4 (A) A               23 (A) A                  0.5104
     4 (A) A               22 (A) A                 -0.2859
    --------------------------------------------------------
  ----------------------------------------------------------------------------


  Excited state 8 (singlet, A)                                     [converged]
  ----------------------------------------------------------------------------
  Term symbol:  9 (1) A                                     R^2 =  7.30492e-13

  Total energy:                                           -253.1576236388 a.u.
  Excitation energy:                                             287.554579 eV

  Osc. strength:                                                0.008390818394
  Trans. dip. moment [a.u.]:           [   0.000611,   -0.003208,   -0.034357]
  <i|r^2|0> [a.u.]:                    [  -0.000000,    0.016816,   -0.001122]


  V1^2 = 0.7048, V2^2 = 0.2952

  Important amplitudes:
     core i     occ j       vir a       vir b          v   
    --------------------------------------------------------
     3 (A) A               23 (A) A                 -0.4807
     3 (A) A               22 (A) A                 -0.3327
    --------------------------------------------------------
  ----------------------------------------------------------------------------


  Excited state 9 (singlet, A)                                     [converged]
  ----------------------------------------------------------------------------
  Term symbol:  10 (1) A                                    R^2 =  2.89288e-08

  Total energy:                                           -253.0348159175 a.u.
  Excitation energy:                                             290.896347 eV

  Osc. strength:                                                0.017423373374
  Trans. dip. moment [a.u.]:           [  -0.000271,    0.049264,   -0.004212]
  <i|r^2|0> [a.u.]:                    [  -0.007175,    0.260051,    0.007578]


  V1^2 = 0.7659, V2^2 = 0.2341

  Important amplitudes:
     core i     occ j       vir a       vir b          v   
    --------------------------------------------------------
     5 (A) A               24 (A) A                 -0.3804
     5 (A) A               25 (A) A                 -0.3211
    --------------------------------------------------------
  ----------------------------------------------------------------------------


  Excited state 10 (singlet, A)                                     [converged]
  ----------------------------------------------------------------------------
  Term symbol:  11 (1) A                                    R^2 =  9.67775e-07

  Total energy:                                           -253.0278396123 a.u.
  Excitation energy:                                             291.086182 eV

  Osc. strength:                                                0.020248811835
  Trans. dip. moment [a.u.]:           [  -0.036732,   -0.038206,    0.005515]
  <i|r^2|0> [a.u.]:                    [  -0.159534,   -0.121885,   -0.007346]


  V1^2 = 0.7598, V2^2 = 0.2402

  Important amplitudes:
     core i     occ j       vir a       vir b          v   
    --------------------------------------------------------
     6 (A) A               24 (A) A                  0.3842
     6 (A) A               25 (A) A                  0.3130
    --------------------------------------------------------
  ----------------------------------------------------------------------------


--------------------------------------------------------------------------------
  Time of ADC calculation:  CPU 5946.15 s  wall 5946.55 s
================================================================================
********************************************************************************
 FANOMAN: Finished probe state ADC calculation.
********************************************************************************
********************************************************************************
 FANOMAN: Performing pump state ADC calculation.
********************************************************************************
================================================================================
|                                                                              |
|                                 A D C  M A N                                 |
|                                                                              |
 ------------------------------------------------------------------------------ 
|                                                                              |
| Components:                                                                  |
|                                                                              |
| - libvmm - 1.3-trunk                                                         |
|   Authors:                                                                   |
|   Evgeny Epifanovsky, Ilya Kaliman                                           |
|                                                                              |
| - libtensor - 2.5-trunk                                                      |
|   Authors:                                                                   |
|   Evgeny Epifanovsky, Michael Wormit, Dmitry Zuev, Sam Manzer,               |
|   Ilya Kaliman                                                               |
|                                                                              |
| - libwfa - 1.1-beta                                                          |
|   Authors:                                                                   |
|   Felix Plasser, Stefanie Baeppler, Benjamin Thomitzni, Michael Wormit       |
|                                                                              |
| - libadc - 1.0-beta                                                          |
|   Authors:                                                                   |
|   Michael Wormit, Philipp H. P. Harbach, Caroline Krauter, Dirk Rehn,        |
|   Matthias Schneider, Jan Wenzel                                             |
|                                                                              |
| - adcman - 2.5-core_valence                                                  |
|   Authors:                                                                   |
|   Michael Wormit, Philipp H. P. Harbach, Caroline Krauter, Dirk Rehn,        |
|   Jan Wenzel, Jan-Michael Mewes, Daniel Lefrancois, Andreas Dreuw            |
|                                                                              |
| Authors of earlier versions of ADCMAN:                                       |
| Andreas Dreuw, Jan Hendrik Starcke, Dirk Rehn, Michael Wormit                |
|                                                                              |
================================================================================


--------------------------------------------------------------------------------
                                   HF Summary                                   
--------------------------------------------------------------------------------
  Energy:                                                 -262.6453840420 a.u.
  Dip. moment [a.u.]:                  [   0.082576,    0.109397,   -0.052189]
  Total dipole [Debye]:                                         0.372780544168
  <r^2> [a.u.]:                        [ 210.143014,  198.918860,   28.152632]
  Total <r^2> [a.u.]:                                         437.214505004121
--------------------------------------------------------------------------------

--------------------------------------------------------------------------------
                                 MP(2) Summary                                  
--------------------------------------------------------------------------------
  MP energy contribution:                                   -1.0796763840 a.u.
  Total energy:                                           -263.7250604260 a.u.
  Dip. moment [a.u.]:                  [   0.046054,    0.071306,   -0.038251]
  Total dipole [Debye]:                                         0.236650524526
  <r^2> [a.u.]:                        [ 209.754369,  199.040127,   27.603272]
  Total <r^2> [a.u.]:                                         436.397767936779
--------------------------------------------------------------------------------
  Starting Davidson ... 
--------------------------------------------------------------------------------
   It NVec Conv  Avg. Norm  Max. Norm  Conv. states           Remark
--------------------------------------------------------------------------------
         7    0  2.455e-01  7.026e-01  0.3400 n n n n n n n   Guess.
    1   14    0  1.151e-01  6.508e-01  0.1645 n n n n n n n   
    2   21    0  4.215e-02  2.437e-01  0.1510 n n n n n n n   
    3   28    0  1.684e-02  9.182e-02  0.1496 n n n n n n n   
    4   35    0  1.513e-02  9.484e-02  0.1492 n n n n n n n   
    5   14    0  5.845e-03  2.981e-02  0.1492 n n n n n n n   Subspace collapsed.
    6   21    0  9.685e-03  5.027e-02  0.1492 n n n n n n n   
    7   28    0  7.788e-03  4.914e-02  0.1492 n n n n n n n   
    8   35    0  4.929e-03  3.046e-02  0.1492 n n n n n n n   
    9   14    0  2.451e-03  1.441e-02  0.1492 n n n n n n n   Subspace collapsed.
   10   21    0  2.003e-03  1.092e-02  0.1492 n n n n n n n   
   11   28    0  1.224e-03  6.520e-03  0.1492 n n n n n n n   
   12   35    0  1.492e-03  7.303e-03  0.1492 n n n n n n n   
   13   14    0  5.998e-04  3.105e-03  0.1492 n n n n n n n   Subspace collapsed.
   14   21    0  8.457e-04  4.912e-03  0.1492 n n n n n n n   
   15   28    0  6.198e-04  3.868e-03  0.1492 n n n n n n n   
   16   35    0  1.061e-03  7.143e-03  0.1492 n n n n n n n   
   17   14    2  4.421e-04  2.988e-03  0.1492 y y n n n n n   Subspace collapsed.
   18   21    2  5.952e-04  4.081e-03  0.1492 y y n n n n n   
   19   28    3  6.247e-04  4.324e-03  0.1492 y y y n n n n   
   20   35    3  7.592e-04  5.290e-03  0.1492 y y y n n n n   
   21   14    3  5.307e-04  3.703e-03  0.1492 y y y n n n n   Subspace collapsed.
   22   21    3  5.024e-04  3.510e-03  0.1492 y y y n n n n   
   23   28    3  5.224e-04  3.653e-03  0.1492 y y y n n n n   
   24   35    4  1.274e-03  8.914e-03  0.1492 y y y y n n n   
   25   14    4  4.658e-04  3.260e-03  0.1492 y y y y n n n   Subspace collapsed.
   26   21    4  6.190e-04  4.332e-03  0.1492 y y y y n n n   
   27   28    4  4.258e-04  2.981e-03  0.1492 y y y y n n n   
   28   35    4  6.463e-04  4.524e-03  0.1492 y y y y n n n   
   29   14    4  3.801e-04  2.660e-03  0.1492 y y y y n n n   Subspace collapsed.
   30   21    4  5.564e-04  3.895e-03  0.1492 y y y y n n n   
   31   28    4  4.657e-04  3.260e-03  0.1492 y y y y n n n   
   32   35    4  9.866e-04  6.907e-03  0.1492 y y y y n n n   
   33   14    4  3.987e-04  2.791e-03  0.1492 y y y y n n n   Subspace collapsed.
   34   21    4  5.397e-04  3.778e-03  0.1492 y y y y n n n   
   35   28    4  4.097e-04  2.868e-03  0.1492 y y y y n n n   
   36   35    4  7.382e-04  5.167e-03  0.1492 y y y y n n n   
   37   14    4  3.484e-04  2.439e-03  0.1492 y y y y n n n   Subspace collapsed.
   38   20    4  5.254e-04  3.678e-03  0.1492 y y y y n n n   
   39   26    6  4.324e-04  3.027e-03  0.1492 y y y y y y n   
   40   32    5  7.049e-04  4.934e-03  0.1492 y y y y y n n   
   41   32    5  7.049e-04  4.934e-03  0.1492 y y y y y n n   
   42   35    6  8.274e-04  5.792e-03  0.1492 y y y y y y n   
   43   11    6  4.709e-04  3.296e-03  0.1492 y y y y y y n   Subspace collapsed.
   44   15    6  5.303e-04  3.712e-03  0.1492 y y y y y y n   
   45   19    6  4.428e-04  3.100e-03  0.1492 y y y y y y n   
   46   23    6  5.971e-04  4.180e-03  0.1492 y y y y y y n   
   47   27    6  8.130e-04  5.691e-03  0.1492 y y y y y y n   
   48   31    6  1.138e-03  7.967e-03  0.1492 y y y y y y n   
   49   35    6  1.119e-03  7.831e-03  0.1492 y y y y y y n   
   50   11    6  5.853e-04  4.097e-03  0.1492 y y y y y y n   Subspace collapsed.
   51   15    6  7.367e-04  5.157e-03  0.1492 y y y y y y n   
   52   19    6  5.267e-04  3.687e-03  0.1492 y y y y y y n   
   53   19    6  5.267e-04  3.687e-03  0.1492 y y y y y y n   
   54   26    6  4.454e-04  3.118e-03  0.1492 y y y y y y n   
   55   29    6  3.919e-04  2.743e-03  0.1492 y y y y y y n   
   56   32    6  3.305e-04  2.314e-03  0.1492 y y y y y y n   
   57   35    6  2.878e-04  2.014e-03  0.1492 y y y y y y n   
   58   10    6  1.939e-04  1.357e-03  0.1492 y y y y y y n   Subspace collapsed.
   59   13    6  2.366e-04  1.656e-03  0.1492 y y y y y y n   
   60   16    6  2.897e-04  2.028e-03  0.1492 y y y y y y n   
   61   19    6  4.026e-04  2.818e-03  0.1492 y y y y y y n   
   62   22    6  4.062e-04  2.843e-03  0.1492 y y y y y y n   
   63   25    6  4.005e-04  2.804e-03  0.1492 y y y y y y n   
   64   28    6  5.683e-04  3.978e-03  0.1492 y y y y y y n   
   65   31    6  5.186e-04  3.630e-03  0.1492 y y y y y y n   
   66   34    6  4.217e-04  2.952e-03  0.1492 y y y y y y n   
   67   35    6  2.829e-04  1.980e-03  0.1492 y y y y y y n   
   68   10    6  1.809e-04  1.266e-03  0.1492 y y y y y y n   Subspace collapsed.
   69   13    6  1.805e-04  1.263e-03  0.1492 y y y y y y n   
   70   16    6  1.348e-04  9.438e-04  0.1492 y y y y y y n   
   71   19    6  1.067e-04  7.466e-04  0.1492 y y y y y y n   
   72   22    6  7.717e-05  5.402e-04  0.1492 y y y y y y n   
   73   25    6  6.815e-05  4.770e-04  0.1492 y y y y y y n   
   74   26    6  5.511e-05  3.858e-04  0.1492 y y y y y y n   
   75   28    6  4.213e-05  2.949e-04  0.1492 y y y y y y n   
   76   30    6  2.879e-05  2.016e-04  0.1492 y y y y y y n   
   77   32    6  2.286e-05  1.600e-04  0.1492 y y y y y y n   
   78   34    6  2.789e-05  1.953e-04  0.1492 y y y y y y n   
   79   35    6  3.666e-05  2.566e-04  0.1492 y y y y y y n   
   80    8    6  2.281e-05  1.597e-04  0.1492 y y y y y y n   Subspace collapsed.
   81    9    6  2.539e-05  1.777e-04  0.1492 y y y y y y n   
   82   10    6  2.127e-05  1.489e-04  0.1492 y y y y y y n   
   83   11    6  2.586e-05  1.810e-04  0.1492 y y y y y y n   
   84   12    6  2.825e-05  1.978e-04  0.1492 y y y y y y n   
   85   13    6  3.073e-05  2.151e-04  0.1492 y y y y y y n   
   86   14    6  3.577e-05  2.504e-04  0.1492 y y y y y y n   
   87   15    6  3.887e-05  2.721e-04  0.1492 y y y y y y n   
   88   16    6  3.505e-05  2.454e-04  0.1492 y y y y y y n   
   89   17    6  3.706e-05  2.594e-04  0.1492 y y y y y y n   
   90   18    6  3.317e-05  2.322e-04  0.1492 y y y y y y n   
   91   19    6  3.408e-05  2.386e-04  0.1492 y y y y y y n   
   92   20    6  3.694e-05  2.586e-04  0.1492 y y y y y y n   
   93   21    6  3.055e-05  2.139e-04  0.1492 y y y y y y n   
   94   22    6  2.313e-05  1.619e-04  0.1492 y y y y y y n   
   95   23    6  1.551e-05  1.086e-04  0.1492 y y y y y y n   
   96   24    6  1.186e-05  8.299e-05  0.1492 y y y y y y n   
   97   25    6  9.138e-06  6.397e-05  0.1492 y y y y y y n   
   98   26    6  6.631e-06  4.642e-05  0.1492 y y y y y y n   
   99   27    6  5.053e-06  3.537e-05  0.1492 y y y y y y n   
  100   28    6  4.194e-06  2.935e-05  0.1492 y y y y y y n   
  101   29    6  3.421e-06  2.395e-05  0.1492 y y y y y y n   
  102   30    6  2.632e-06  1.843e-05  0.1492 y y y y y y n   
  103   31    6  2.150e-06  1.505e-05  0.1492 y y y y y y n   
  104   32    6  1.267e-06  8.871e-06  0.1492 y y y y y y n   
  105   33    6  9.792e-07  6.854e-06  0.1492 y y y y y y n   
  106   34    6  5.731e-07  4.012e-06  0.1492 y y y y y y n   
  107   35    6  4.629e-07  3.240e-06  0.1492 y y y y y y n   
  108    8    6  1.988e-07  1.392e-06  0.1492 y y y y y y n   Subspace collapsed.
  109    9    6  2.634e-07  1.844e-06  0.1492 y y y y y y n   
  110   10    6  1.644e-07  1.151e-06  0.1492 y y y y y y n   
  111   11    6  1.493e-07  1.045e-06  0.1492 y y y y y y n   
  112   12    7  9.676e-08  6.773e-07  0.1492 y y y y y y y   Converged.
--------------------------------------------------------------------------------
  Davidson Summary: 
 ------------------------------------------------------------
  State  0: excitation energy =   0.1492 a.u.   (converged)
  State  1: excitation energy =   0.1729 a.u.   (converged)
  State  2: excitation energy =   0.1746 a.u.   (converged)
  State  3: excitation energy =   0.2110 a.u.   (converged)
  State  4: excitation energy =   0.2336 a.u.   (converged)
  State  5: excitation energy =   0.2422 a.u.   (converged)
  State  6: excitation energy =   0.2702 a.u.   (converged)
 ------------------------------------------------------------


--------------------------------------------------------------------------------
                             Excited State Summary
--------------------------------------------------------------------------------
--------------------------------------------------------------------------------

  Excited state 1 (singlet, A)                                     [converged]
  ----------------------------------------------------------------------------
  Term symbol:  2 (1) A                                     R^2 =  8.34632e-14

  Total energy:                                           -263.5759025170 a.u.
  Excitation energy:                                               4.058793 eV

  Osc. strength:                                                0.015656508824
  Trans. dip. moment [a.u.]:           [   0.152698,    0.297755,    0.213246]
  <i|r^2|0> [a.u.]:                    [   0.197875,    0.075134,   -0.164181]


  V1^2 = 0.9046, V2^2 = 0.0954

  Important amplitudes:
      occ i      occ j       vir a       vir b          v   
    ---------------------------------------------------------
     19 (A) A               22 (A) A                 -0.5461
     21 (A) A               22 (A) A                 -0.3635
    ---------------------------------------------------------
  ----------------------------------------------------------------------------


  Excited state 2 (singlet, A)                                     [converged]
  ----------------------------------------------------------------------------
  Term symbol:  3 (1) A                                     R^2 =  1.09380e-13

  Total energy:                                           -263.5522089737 a.u.
  Excitation energy:                                               4.703527 eV

  Osc. strength:                                                0.017398027369
  Trans. dip. moment [a.u.]:           [  -0.078300,   -0.378912,    0.035695]
  <i|r^2|0> [a.u.]:                    [   0.019652,    0.088110,   -0.053364]


  V1^2 = 0.8914, V2^2 = 0.1086

  Important amplitudes:
      occ i      occ j       vir a       vir b          v   
    ---------------------------------------------------------
     19 (A) A               23 (A) A                 -0.4430
     21 (A) A               22 (A) A                  0.3135
    ---------------------------------------------------------
  ----------------------------------------------------------------------------


  Excited state 3 (singlet, A)                                     [converged]
  ----------------------------------------------------------------------------
  Term symbol:  4 (1) A                                     R^2 =  1.99293e-13

  Total energy:                                           -263.5504459543 a.u.
  Excitation energy:                                               4.751501 eV

  Osc. strength:                                                0.026317259613
  Trans. dip. moment [a.u.]:           [  -0.321755,   -0.343188,    0.069071]
  <i|r^2|0> [a.u.]:                    [   0.091013,   -0.077098,    0.004952]


  V1^2 = 0.8911, V2^2 = 0.1089

  Important amplitudes:
      occ i      occ j       vir a       vir b          v   
    ---------------------------------------------------------
     19 (A) A               23 (A) A                  0.4444
     21 (A) A               22 (A) A                  0.3584
    ---------------------------------------------------------
  ----------------------------------------------------------------------------


  Excited state 4 (singlet, A)                                     [converged]
  ----------------------------------------------------------------------------
  Term symbol:  5 (1) A                                     R^2 =  2.19090e-13

  Total energy:                                           -263.5140876860 a.u.
  Excitation energy:                                               5.740860 eV

  Osc. strength:                                                0.001312858134
  Trans. dip. moment [a.u.]:           [   0.076328,   -0.043975,    0.039681]
  <i|r^2|0> [a.u.]:                    [  -0.028516,    0.056085,   -0.006809]


  V1^2 = 0.8993, V2^2 = 0.1007

  Important amplitudes:
      occ i      occ j       vir a       vir b          v   
    ---------------------------------------------------------
     18 (A) A               22 (A) A                  0.6541
     20 (A) A               22 (A) A                  0.0967
    ---------------------------------------------------------
  ----------------------------------------------------------------------------


  Excited state 5 (singlet, A)                                     [converged]
  ----------------------------------------------------------------------------
  Term symbol:  6 (1) A                                     R^2 =  7.33137e-14

  Total energy:                                           -263.4914971573 a.u.
  Excitation energy:                                               6.355580 eV

  Osc. strength:                                                0.014533649830
  Trans. dip. moment [a.u.]:           [   0.070039,   -0.295178,   -0.036100]
  <i|r^2|0> [a.u.]:                    [  -0.028163,    0.033018,    0.001333]


  V1^2 = 0.8713, V2^2 = 0.1287

  Important amplitudes:
      occ i      occ j       vir a       vir b          v   
    ---------------------------------------------------------
     18 (A) A               23 (A) A                  0.6198
     21 (A) A               23 (A) A                 -0.1371
    ---------------------------------------------------------
  ----------------------------------------------------------------------------


  Excited state 6 (singlet, A)                                     [converged]
  ----------------------------------------------------------------------------
  Term symbol:  7 (1) A                                     R^2 =  3.74639e-13

  Total energy:                                           -263.4828779552 a.u.
  Excitation energy:                                               6.590120 eV

  Osc. strength:                                                0.080444457189
  Trans. dip. moment [a.u.]:           [  -0.643259,    0.290533,    0.007422]
  <i|r^2|0> [a.u.]:                    [   0.259475,   -0.115176,    0.039381]


  V1^2 = 0.9272, V2^2 = 0.0728

  Important amplitudes:
      occ i      occ j       vir a       vir b          v   
    ---------------------------------------------------------
     21 (A) A               23 (A) A                  0.5613
     20 (A) A               22 (A) A                  0.2727
    ---------------------------------------------------------
  ----------------------------------------------------------------------------


  Excited state 7 (singlet, A)                                     [converged]
  ----------------------------------------------------------------------------
  Term symbol:  8 (1) A                                     R^2 =  6.77332e-07

  Total energy:                                           -263.4548178996 a.u.
  Excitation energy:                                               7.353673 eV

  Osc. strength:                                                0.368791320921
  Trans. dip. moment [a.u.]:           [  -0.131300,    1.422684,    0.075714]
  <i|r^2|0> [a.u.]:                    [   0.062036,   -0.155191,    0.027690]


  V1^2 = 0.9038, V2^2 = 0.0962

  Important amplitudes:
      occ i      occ j       vir a       vir b          v   
    ---------------------------------------------------------
     20 (A) A               23 (A) A                 -0.4410
     20 (A) A               22 (A) A                 -0.3254
    ---------------------------------------------------------
  ----------------------------------------------------------------------------


--------------------------------------------------------------------------------
  Time of ADC calculation:  CPU 2232.47 s  wall 2232.63 s
================================================================================
********************************************************************************
 FANOMAN: Finished pump state ADC calculation.
********************************************************************************
********************************************************************************
 FANOMAN: Performing computation of pump <-> probe transitions.
********************************************************************************
--------------------------------------------------------------------------------
 Computing couplings for irreps A -- A
--------------------------------------------------------------------------------
 ---------------------------------------------------------------------------------------------------------
 Couplings for probe state 2 (1) A
 ---------------------------------------------------------------------------------------------------------
      pumped
      state #       E_c - E_b         overlap      osc. strength        dx           dy           dz     
 ---------------------------------------------------------------------------------------------------------
        2 (1) A   1.03772696e+01 -7.38562359e-05  4.95172364e-03  [ 1.7264e-02, -1.6443e-02,  1.2138e-02]
        3 (1) A   1.03535761e+01 -1.23550775e-04  2.73735568e-03  [ 1.0553e-02, -1.3157e-02, -1.0588e-02]
        4 (1) A   1.03518131e+01  2.49483086e-05  1.73068120e-03  [-9.7089e-05, -8.6929e-04, -1.5812e-02]
        5 (1) A   1.03154548e+01  3.47949047e-04  9.98686889e-04  [ 8.9223e-03,  7.7693e-03, -2.2917e-03]
        6 (1) A   1.02928643e+01  2.75720926e-04  2.33184339e-04  [ 3.9435e-03,  4.0478e-03,  1.4304e-03]
        7 (1) A   1.02842451e+01  5.92856155e-05  2.48099970e-03  [ 8.0540e-04, -4.2067e-03, -1.8534e-02]
        8 (1) A   1.02561850e+01 -5.24727743e-06  2.20841089e-03  [ 1.9702e-03,  1.1103e-02,  1.3994e-02]
 ---------------------------------------------------------------------------------------------------------
 ---------------------------------------------------------------------------------------------------------
 Couplings for probe state 3 (1) A
 ---------------------------------------------------------------------------------------------------------
      pumped
      state #       E_c - E_b         overlap      osc. strength        dx           dy           dz     
 ---------------------------------------------------------------------------------------------------------
        2 (1) A   1.03800612e+01  1.90907621e-05  4.18113597e-03  [-1.8110e-02,  1.4792e-02, -7.5793e-03]
        3 (1) A   1.03563677e+01 -1.07229424e-05  2.21235669e-03  [-9.4315e-03,  8.5476e-03,  1.2587e-02]
        4 (1) A   1.03546047e+01  4.40178651e-05  1.62854538e-03  [ 1.9723e-03, -1.8613e-03,  1.5118e-02]
        5 (1) A   1.03182464e+01 -3.55574984e-04  1.60433596e-03  [ 2.4177e-03,  1.4835e-02,  2.7031e-03]
        6 (1) A   1.02956559e+01 -3.10782780e-04  2.70868667e-04  [ 1.5825e-04,  6.2568e-03, -5.3941e-04]
        7 (1) A   1.02870367e+01  3.17965211e-05  2.30810913e-03  [ 1.5942e-03,  2.1389e-03,  1.8150e-02]
        8 (1) A   1.02589766e+01 -8.13004411e-05  2.97248487e-03  [-6.8815e-03, -8.8503e-03, -1.7577e-02]
 ---------------------------------------------------------------------------------------------------------
 ---------------------------------------------------------------------------------------------------------
 Couplings for probe state 4 (1) A
 ---------------------------------------------------------------------------------------------------------
      pumped
      state #       E_c - E_b         overlap      osc. strength        dx           dy           dz     
 ---------------------------------------------------------------------------------------------------------
        2 (1) A   1.03814487e+01 -8.44529998e-06  3.65650185e-03  [-1.9105e-02,  5.2390e-03,  1.1657e-02]
        3 (1) A   1.03577551e+01  2.08007006e-05  1.84753618e-03  [ 5.0256e-03, -3.0046e-03, -1.5273e-02]
        4 (1) A   1.03559921e+01 -1.06352385e-05  3.42501957e-03  [-1.6442e-02,  3.5047e-03, -1.4610e-02]
        5 (1) A   1.03196338e+01 -3.57784870e-04  7.14790588e-04  [-5.6615e-03, -8.4316e-03,  8.6770e-04]
        6 (1) A   1.02970433e+01  3.86269602e-04  5.34631952e-04  [ 2.8421e-03,  4.8005e-03, -6.8381e-03]
        7 (1) A   1.02884241e+01  8.82655823e-05  1.81881757e-03  [ 4.5583e-03,  4.1181e-03,  1.5081e-02]
        8 (1) A   1.02603640e+01  2.43930133e-05  5.36600053e-04  [-1.2258e-03, -2.8407e-03,  8.2991e-03]
 ---------------------------------------------------------------------------------------------------------
 ---------------------------------------------------------------------------------------------------------
 Couplings for probe state 5 (1) A
 ---------------------------------------------------------------------------------------------------------
      pumped
      state #       E_c - E_b         overlap      osc. strength        dx           dy           dz     
 ---------------------------------------------------------------------------------------------------------
        2 (1) A   1.03843451e+01  8.76111217e-05  3.71971887e-03  [-1.9628e-02,  1.2945e-03,  1.2263e-02]
        3 (1) A   1.03606515e+01 -6.66135693e-05  2.63637110e-03  [ 4.1246e-03, -2.5507e-03, -1.8925e-02]
        4 (1) A   1.03588885e+01  6.22566733e-05  4.09018053e-03  [-1.3137e-02,  1.8876e-03, -2.0399e-02]
        5 (1) A   1.03225302e+01 -2.72635416e-04  6.81447652e-04  [ 2.9753e-03,  9.4436e-03,  9.9464e-04]
        6 (1) A   1.02999397e+01  2.43890778e-04  6.39658622e-04  [-2.0754e-03, -5.1197e-03, -7.9143e-03]
        7 (1) A   1.02913205e+01  1.74925889e-04  1.08406960e-03  [-4.2360e-04, -9.3985e-04,  1.2528e-02]
        8 (1) A   1.02632605e+01  6.96749250e-05  1.19029543e-03  [-2.8963e-03, -3.4194e-03,  1.2405e-02]
 ---------------------------------------------------------------------------------------------------------
 ---------------------------------------------------------------------------------------------------------
 Couplings for probe state 6 (1) A
 ---------------------------------------------------------------------------------------------------------
      pumped
      state #       E_c - E_b         overlap      osc. strength        dx           dy           dz     
 ---------------------------------------------------------------------------------------------------------
        2 (1) A   1.04099345e+01  4.55888729e-05  2.41887397e-03  [ 7.8948e-03, -9.0649e-03,  1.4284e-02]
        3 (1) A   1.03862410e+01  1.29058972e-05  5.63481538e-03  [-1.4742e-02,  8.9004e-03, -2.2743e-02]
        4 (1) A   1.03844780e+01 -2.21709892e-05  6.67839009e-03  [ 1.3351e-02, -1.3371e-02, -2.4650e-02]
        5 (1) A   1.03481197e+01  7.79277407e-05  3.55928945e-04  [-1.6477e-03, -6.7957e-03, -1.6424e-03]
        6 (1) A   1.03255292e+01 -3.24978654e-04  1.02064753e-03  [ 2.4891e-03,  1.1325e-02, -3.7185e-03]
        7 (1) A   1.03169100e+01 -8.75152513e-05  1.86984682e-03  [ 2.4673e-03,  2.7363e-03,  1.6071e-02]
        8 (1) A   1.02888499e+01 -2.99160309e-05  2.18380076e-04  [ 1.0139e-03,  5.4001e-04,  5.5243e-03]
 ---------------------------------------------------------------------------------------------------------
 ---------------------------------------------------------------------------------------------------------
 Couplings for probe state 7 (1) A
 ---------------------------------------------------------------------------------------------------------
      pumped
      state #       E_c - E_b         overlap      osc. strength        dx           dy           dz     
 ---------------------------------------------------------------------------------------------------------
        2 (1) A   1.04112132e+01 -5.10653930e-05  1.96479397e-03  [ 1.3229e-02, -2.8318e-03, -1.0003e-02]
        3 (1) A   1.03875197e+01 -4.75757188e-05  3.15901715e-03  [ 1.6946e-02, -6.6766e-04,  1.2983e-02]
        4 (1) A   1.03857567e+01  5.82080270e-05  3.03448328e-03  [-9.7625e-03,  1.3968e-03,  1.8466e-02]
        5 (1) A   1.03493984e+01  6.11709195e-05  2.91913744e-04  [-7.8436e-04, -6.2646e-03,  1.5647e-03]
        6 (1) A   1.03268079e+01  2.31526233e-04  7.22286820e-04  [-9.9058e-04, -8.1354e-03, -6.1440e-03]
        7 (1) A   1.03181887e+01  1.11207737e-04  4.53814675e-03  [ 1.3817e-04, -1.1148e-03,  2.5661e-02]
        8 (1) A   1.02901286e+01  1.08435516e-04  1.80414015e-03  [ 3.9714e-03,  4.6736e-03,  1.5013e-02]
 ---------------------------------------------------------------------------------------------------------
 ---------------------------------------------------------------------------------------------------------
 Couplings for probe state 8 (1) A
 ---------------------------------------------------------------------------------------------------------
      pumped
      state #       E_c - E_b         overlap      osc. strength        dx           dy           dz     
 ---------------------------------------------------------------------------------------------------------
        2 (1) A   1.04154184e+01 -5.39056598e-05  2.91247404e-03  [ 8.9573e-03, -8.9965e-03,  1.6071e-02]
        3 (1) A   1.03917249e+01  3.67101545e-05  5.26565322e-03  [-1.1031e-02,  7.6896e-03, -2.4068e-02]
        4 (1) A   1.03899618e+01 -4.69065605e-05  5.81106249e-03  [ 1.4761e-02, -1.6646e-02, -1.8546e-02]
        5 (1) A   1.03536036e+01  6.51207740e-05  2.55122964e-04  [ 3.9133e-03,  4.4909e-03, -1.2163e-03]
        6 (1) A   1.03310130e+01 -2.82648341e-04  7.42257259e-04  [-7.0476e-03, -6.4655e-03, -4.0374e-03]
        7 (1) A   1.03223938e+01 -7.91674064e-05  2.79256720e-03  [-4.4152e-03,  6.0014e-04,  1.9646e-02]
        8 (1) A   1.02943338e+01 -2.07474422e-05  1.35088929e-04  [-1.5426e-03, -2.0806e-04,  4.1546e-03]
 ---------------------------------------------------------------------------------------------------------
 ---------------------------------------------------------------------------------------------------------
 Couplings for probe state 9 (1) A
 ---------------------------------------------------------------------------------------------------------
      pumped
      state #       E_c - E_b         overlap      osc. strength        dx           dy           dz     
 ---------------------------------------------------------------------------------------------------------
        2 (1) A   1.04182789e+01 -3.69525747e-05  3.01420789e-03  [-1.4204e-02,  5.0558e-03,  1.4376e-02]
        3 (1) A   1.03945853e+01  1.74073635e-05  4.95105961e-03  [-2.0414e-02,  4.1797e-03, -1.6742e-02]
        4 (1) A   1.03928223e+01 -3.87422690e-06  4.64495241e-03  [ 8.5155e-03, -4.8984e-03, -2.3956e-02]
        5 (1) A   1.03564640e+01 -9.47415354e-05  5.02012933e-04  [-5.6984e-03, -6.0145e-03, -2.0158e-03]
        6 (1) A   1.03338735e+01 -3.10952383e-04  6.88970832e-04  [-4.2113e-03, -8.1670e-03,  3.9461e-03]
        7 (1) A   1.03252543e+01 -4.14935418e-05  2.54961766e-03  [-3.2414e-03, -1.0171e-03, -1.8943e-02]
        8 (1) A   1.02971943e+01 -1.54386970e-05  2.89636090e-03  [-6.0823e-03, -1.0909e-02, -1.6307e-02]
 ---------------------------------------------------------------------------------------------------------
 ---------------------------------------------------------------------------------------------------------
 Couplings for probe state 10 (1) A
 ---------------------------------------------------------------------------------------------------------
      pumped
      state #       E_c - E_b         overlap      osc. strength        dx           dy           dz     
 ---------------------------------------------------------------------------------------------------------
        2 (1) A   1.05410866e+01  1.22012143e-05  1.30143790e-05  [-1.7978e-04,  1.3249e-03, -2.5330e-04]
        3 (1) A   1.05173931e+01 -2.62789453e-05  2.86806878e-05  [ 1.4734e-04, -2.0088e-03,  1.8326e-04]
        4 (1) A   1.05156300e+01  6.24996401e-06  3.96091261e-06  [-3.5566e-04, -6.4928e-04, -1.3019e-04]
        5 (1) A   1.04792718e+01  1.76789423e-06  3.48760189e-06  [-1.4628e-04,  6.4368e-04,  2.5198e-04]
        6 (1) A   1.04566812e+01 -1.02523519e-05  3.93897807e-05  [-4.6593e-04, -2.3077e-03, -3.2839e-04]
        7 (1) A   1.04480620e+01  8.59068207e-05  2.63890007e-04  [ 1.3100e-03,  6.0139e-03, -5.1256e-05]
        8 (1) A   1.04200020e+01  7.25118814e-05  5.44510098e-05  [ 5.9228e-04,  2.7083e-03,  3.9084e-04]
 ---------------------------------------------------------------------------------------------------------
 ---------------------------------------------------------------------------------------------------------
 Couplings for probe state 11 (1) A
 ---------------------------------------------------------------------------------------------------------
      pumped
      state #       E_c - E_b         overlap      osc. strength        dx           dy           dz     
 ---------------------------------------------------------------------------------------------------------
        2 (1) A   1.05480629e+01 -7.76492361e-06  1.64862109e-05  [-1.0243e-03, -1.1256e-03,  1.6773e-04]
        3 (1) A   1.05243694e+01 -9.00788610e-08  4.95388553e-06  [ 3.4541e-04,  7.6591e-04,  1.1197e-05]
        4 (1) A   1.05226063e+01  1.41333140e-05  2.98607400e-05  [ 1.3955e-03,  1.4818e-03, -3.3699e-04]
        5 (1) A   1.04862481e+01  2.77658615e-06  2.41175496e-06  [ 4.7045e-04,  3.4044e-04,  8.8100e-05]
        6 (1) A   1.04636575e+01 -2.09699433e-05  3.39123744e-06  [-4.5738e-04, -1.7644e-04,  4.9580e-04]
        7 (1) A   1.04550383e+01  3.27999300e-05  2.23092161e-04  [ 4.1584e-03,  3.7417e-03, -8.4575e-04]
        8 (1) A   1.04269783e+01  2.00769194e-05  1.46865201e-04  [-2.5091e-03, -3.8280e-03, -4.2268e-04]
 ---------------------------------------------------------------------------------------------------------
********************************************************************************
 Pump-Probe Results
********************************************************************************
 ----------------------------------------------------------------
 Transitions from pumped state 2 (1) A
 ----------------------------------------------------------------
   probed state    E_pr - E_pu    osc. strength       overlap   
 ----------------------------------------------------------------
        2 (1) A   2.82379868e+02  4.95172364e-03 -7.38562359e-05
        3 (1) A   2.82455831e+02  4.18113597e-03  1.90907621e-05
        4 (1) A   2.82493585e+02  3.65650185e-03 -8.44529998e-06
        5 (1) A   2.82572400e+02  3.71971887e-03  8.76111217e-05
        6 (1) A   2.83268725e+02  2.41887397e-03  4.55888729e-05
        7 (1) A   2.83303520e+02  1.96479397e-03 -5.10653930e-05
        8 (1) A   2.83417949e+02  2.91247404e-03 -5.39056598e-05
        9 (1) A   2.83495786e+02  3.01420789e-03 -3.69525747e-05
       10 (1) A   2.86837554e+02  1.30143790e-05  1.22012143e-05
       11 (1) A   2.87027389e+02  1.64862109e-05 -7.76492361e-06
 ----------------------------------------------------------------
 ----------------------------------------------------------------
 Transitions from pumped state 3 (1) A
 ----------------------------------------------------------------
   probed state    E_pr - E_pu    osc. strength       overlap   
 ----------------------------------------------------------------
        2 (1) A   2.81735133e+02  2.73735568e-03 -1.23550775e-04
        3 (1) A   2.81811097e+02  2.21235669e-03 -1.07229424e-05
        4 (1) A   2.81848851e+02  1.84753618e-03  2.08007006e-05
        5 (1) A   2.81927666e+02  2.63637110e-03 -6.66135693e-05
        6 (1) A   2.82623991e+02  5.63481538e-03  1.29058972e-05
        7 (1) A   2.82658786e+02  3.15901715e-03 -4.75757188e-05
        8 (1) A   2.82773215e+02  5.26565322e-03  3.67101545e-05
        9 (1) A   2.82851052e+02  4.95105961e-03  1.74073635e-05
       10 (1) A   2.86192820e+02  2.86806878e-05 -2.62789453e-05
       11 (1) A   2.86382655e+02  4.95388553e-06 -9.00788610e-08
 ----------------------------------------------------------------
 ----------------------------------------------------------------
 Transitions from pumped state 4 (1) A
 ----------------------------------------------------------------
   probed state    E_pr - E_pu    osc. strength       overlap   
 ----------------------------------------------------------------
        2 (1) A   2.81687159e+02  1.73068120e-03  2.49483086e-05
        3 (1) A   2.81763123e+02  1.62854538e-03  4.40178651e-05
        4 (1) A   2.81800876e+02  3.42501957e-03 -1.06352385e-05
        5 (1) A   2.81879692e+02  4.09018053e-03  6.22566733e-05
        6 (1) A   2.82576017e+02  6.67839009e-03 -2.21709892e-05
        7 (1) A   2.82610811e+02  3.03448328e-03  5.82080270e-05
        8 (1) A   2.82725240e+02  5.81106249e-03 -4.69065605e-05
        9 (1) A   2.82803078e+02  4.64495241e-03 -3.87422690e-06
       10 (1) A   2.86144846e+02  3.96091261e-06  6.24996401e-06
       11 (1) A   2.86334681e+02  2.98607400e-05  1.41333140e-05
 ----------------------------------------------------------------
 ----------------------------------------------------------------
 Transitions from pumped state 5 (1) A
 ----------------------------------------------------------------
   probed state    E_pr - E_pu    osc. strength       overlap   
 ----------------------------------------------------------------
        2 (1) A   2.80697800e+02  9.98686889e-04  3.47949047e-04
        3 (1) A   2.80773764e+02  1.60433596e-03 -3.55574984e-04
        4 (1) A   2.80811518e+02  7.14790588e-04 -3.57784870e-04
        5 (1) A   2.80890333e+02  6.81447652e-04 -2.72635416e-04
        6 (1) A   2.81586658e+02  3.55928945e-04  7.79277407e-05
        7 (1) A   2.81621453e+02  2.91913744e-04  6.11709195e-05
        8 (1) A   2.81735882e+02  2.55122964e-04  6.51207740e-05
        9 (1) A   2.81813719e+02  5.02012933e-04 -9.47415354e-05
       10 (1) A   2.85155487e+02  3.48760189e-06  1.76789423e-06
       11 (1) A   2.85345322e+02  2.41175496e-06  2.77658615e-06
 ----------------------------------------------------------------
 ----------------------------------------------------------------
 Transitions from pumped state 6 (1) A
 ----------------------------------------------------------------
   probed state    E_pr - E_pu    osc. strength       overlap   
 ----------------------------------------------------------------
        2 (1) A   2.80083081e+02  2.33184339e-04  2.75720926e-04
        3 (1) A   2.80159045e+02  2.70868667e-04 -3.10782780e-04
        4 (1) A   2.80196798e+02  5.34631952e-04  3.86269602e-04
        5 (1) A   2.80275614e+02  6.39658622e-04  2.43890778e-04
        6 (1) A   2.80971938e+02  1.02064753e-03 -3.24978654e-04
        7 (1) A   2.81006733e+02  7.22286820e-04  2.31526233e-04
        8 (1) A   2.81121162e+02  7.42257259e-04 -2.82648341e-04
        9 (1) A   2.81198999e+02  6.88970832e-04 -3.10952383e-04
       10 (1) A   2.84540768e+02  3.93897807e-05 -1.02523519e-05
       11 (1) A   2.84730602e+02  3.39123744e-06 -2.09699433e-05
 ----------------------------------------------------------------
 ----------------------------------------------------------------
 Transitions from pumped state 7 (1) A
 ----------------------------------------------------------------
   probed state    E_pr - E_pu    osc. strength       overlap   
 ----------------------------------------------------------------
        2 (1) A   2.79848540e+02  2.48099970e-03  5.92856155e-05
        3 (1) A   2.79924504e+02  2.30810913e-03  3.17965211e-05
        4 (1) A   2.79962258e+02  1.81881757e-03  8.82655823e-05
        5 (1) A   2.80041073e+02  1.08406960e-03  1.74925889e-04
        6 (1) A   2.80737398e+02  1.86984682e-03 -8.75152513e-05
        7 (1) A   2.80772193e+02  4.53814675e-03  1.11207737e-04
        8 (1) A   2.80886622e+02  2.79256720e-03 -7.91674064e-05
        9 (1) A   2.80964459e+02  2.54961766e-03 -4.14935418e-05
       10 (1) A   2.84306227e+02  2.63890007e-04  8.59068207e-05
       11 (1) A   2.84496062e+02  2.23092161e-04  3.27999300e-05
 ----------------------------------------------------------------
 ----------------------------------------------------------------
 Transitions from pumped state 8 (1) A
 ----------------------------------------------------------------
   probed state    E_pr - E_pu    osc. strength       overlap   
 ----------------------------------------------------------------
        2 (1) A   2.79084988e+02  2.20841089e-03 -5.24727743e-06
        3 (1) A   2.79160951e+02  2.97248487e-03 -8.13004411e-05
        4 (1) A   2.79198705e+02  5.36600053e-04  2.43930133e-05
        5 (1) A   2.79277520e+02  1.19029543e-03  6.96749250e-05
        6 (1) A   2.79973845e+02  2.18380076e-04 -2.99160309e-05
        7 (1) A   2.80008640e+02  1.80414015e-03  1.08435516e-04
        8 (1) A   2.80123069e+02  1.35088929e-04 -2.07474422e-05
        9 (1) A   2.80200906e+02  2.89636090e-03 -1.54386970e-05
       10 (1) A   2.83542674e+02  5.44510098e-05  7.25118814e-05
       11 (1) A   2.83732509e+02  1.46865201e-04  2.00769194e-05
 ----------------------------------------------------------------
********************************************************************************
 End of Pump-Probe Results
********************************************************************************
********************************************************************************
 FANOMAN: Finished computation of pump <-> probe transitions.
********************************************************************************
--------------------------------------------------------------------------------
 >>> fanoman shutting down. <<<
--------------------------------------------------------------------------------
 
 --------------------------------------------------------------
 
                    Orbital Energies (a.u.)
 --------------------------------------------------------------
 
 Alpha MOs
 -- Occupied --
-15.615 -15.614 -11.313 -11.307 -11.298 -11.297  -1.263  -1.189
 -1.036  -0.897  -0.874  -0.717  -0.697  -0.668  -0.605  -0.541
 -0.536  -0.503  -0.425  -0.413  -0.347
 -- Virtual --
  0.071   0.102   0.196   0.210   0.238   0.241   0.288   0.304
  0.404   0.430   0.445   0.532   0.588   0.629   0.644   0.661
  0.674   0.701   0.713   0.735   0.751   0.769   0.794   0.820
  0.872   0.882   0.909   0.954   1.003   1.024   1.048   1.071
  1.080   1.099   1.125   1.153   1.157   1.198   1.233   1.265
  1.354   1.365   1.385   1.414   1.531   1.557   1.577   1.703
  1.747   1.755   1.775   1.796   1.806   1.844   1.860   1.897
  1.931   1.952   1.964   1.999   2.084   2.113   2.134   2.209
  2.267   2.280   2.402   2.426   2.494   2.504   2.553   2.578
  2.677   2.704   2.762   2.814   2.855   2.993   3.010   3.070
  3.152   3.312   3.551  19.546  19.686  19.963  20.096  22.467
 22.518  22.555  22.624  22.795  22.934  23.323  23.366  23.470
 23.560  23.816  23.942  26.572  26.808  30.484  30.539  30.690
 30.792  30.954  31.193
 --------------------------------------------------------------
 
          Ground-State Mulliken Net Atomic Charges

     Atom                 Charge (a.u.)
  ----------------------------------------
      1 C                     0.135258
      2 C                     0.080362
      3 N                    -0.327078
      4 C                     0.156538
      5 C                     0.087045
      6 N                    -0.335237
      7 H                     0.042914
      8 H                     0.074735
      9 H                     0.024464
     10 H                     0.060999
  ----------------------------------------
  Sum of atomic charges =    -0.000000

 -----------------------------------------------------------------
                    Cartesian Multipole Moments
 -----------------------------------------------------------------
    Charge (ESU x 10^10)
                 0.0000
    Dipole Moment (Debye)
         X      -0.2099      Y      -0.2781      Z       0.1327
       Tot       0.3728
    Quadrupole Moments (Debye-Ang)
        XX     -38.0020     XY       6.3641     YY     -29.6815
        XZ      -0.3469     YZ      -0.8095     ZZ     -37.1860
    Octopole Moments (Debye-Ang^2)
       XXX      -0.9480    XXY      -0.8133    XYY      -1.0620
       YYY      -0.9417    XXZ       0.1888    XYZ      -0.3971
       YYZ      -0.0036    XZZ       0.0543    YZZ      -0.0761
       ZZZ      -0.4086
    Hexadecapole Moments (Debye-Ang^3)
      XXXX    -284.0970   XXXY      32.5699   XXYY     -92.5439
      XYYY       2.6258   YYYY    -233.5143   XXXZ      -2.5685
      XXYZ      -1.5475   XYYZ      -0.5228   YYYZ      -5.8711
      XXZZ     -55.3433   XYZZ      -0.3588   YYZZ     -55.6984
      XZZZ      -0.5166   YZZZ      -1.2416   ZZZZ     -39.8466
 -----------------------------------------------------------------
Archival summary:
1\1\Knecht18\SP\HF\BasisUnspecified\244\tkaczun\TueDec2815:22:212021TueDec2815:22:212021\0\\#,HF,BasisUnspecified,\\0,1\N\C,1,1.40239\H,2,1.10853,1,110.136\C,2,1.39647,1,123.54,3,-160.59,0\H,4,1.05144,2,125.416,1,162.657,0\C,1,1.4064,2,115.611,3,171.685,0\H,6,0.998575,1,121.34,2,168.255,0\N,4,1.40743,2,125.526,1,-5.95981,0\C,8,1.40523,4,110.428,2,-3.3721,0\H,9,1.08687,8,114.394,4,-168.951,0\\HF=-262.645384\\@

 Total job time:  9076.23s(wall), 9075.60s(cpu) 
 Tue Dec 28 15:22:21 2021

        *************************************************************
        *                                                           *
        *  Thank you very much for using Q-Chem.  Have a nice day.  *
        *                                                           *
        *************************************************************


