Knecht17 192.168.1
Q-Chem Developer Version! Running on 192.168.1.*
                  Welcome to Q-Chem
     A Quantum Leap Into The Future Of Chemistry


 Q-Chem 5.0, Q-Chem, Inc., Pleasanton, CA (2017)

 Yihan Shao,  Zhengting Gan,  E. Epifanovsky,  A. T. B. Gilbert,  M. Wormit,  
 J. Kussmann,  A. W. Lange,  A. Behn,  Jia Deng,  Xintian Feng,  D. Ghosh,  
 M. Goldey,  P. R. Horn,  L. D. Jacobson,  I. Kaliman,  T. Kus,  A. Landau,  
 Jie Liu,  E. I. Proynov,  R. M. Richard,  R. P. Steele,  E. J. Sundstrom,  
 H. L. Woodcock III,  P. M. Zimmerman,  D. Zuev,  B. Albrecht,  E. Alguire,  
 S. A. Baeppler,  Z. Benda,  Y. A. Bernard,  E. J. Berquist,  K. B. Bravaya,  
 D. Casanova,  Chun-Min Chang,  Yunqing Chen,  A. Chien,  K. D. Closser,  
 M. P. Coons,  S. Dasgupta,  M. Diedenhofen,  Hainam Do,  R. G. Edgar,  
 Po-Tung Fang,  S. Fatehi,  Qingguo Feng,  Qinghui Ge,  A. Ghysels,  
 J. Gomes,  J. Gonthier,  A. Gunina,  M. W. D. Hanson-Heine,  
 P. H. P. Harbach,  A. W. Hauser,  J. E. Herr,  E. G. Hohenstein,  
 Z. C. Holden,  Kerwin Hui,  T.-C. Jagau,  Hyunjun Ji,  B. Kaduk,  
 K. Khistyaev,  Jaehoon Kim,  P. Klunzinger,  K. Koh,  D. Kosenkov,  
 T. Kowalczyk,  C. M. Krauter,  A. Kunitsa,  Ka Un Lao,  A. Laurent,  
 K. V. Lawler,  Joonho Lee,  D. Lefrancois,  S. Lehtola,  D. S. Levine,  
 Yi-Pei Li,  You-Sheng Lin,  Fenglai Liu,  E. Livshits,  A. Luenser,  
 P. Manohar,  E. Mansoor,  S. F. Manzer,  Shan-Ping Mao,  Yuezhi Mao,  
 N. Mardirossian,  A. V. Marenich,  L. A. Martinez-Martinez,  S. A. Maurer,  
 N. J. Mayhall,  S. C. McKenzie,  J.-M. Mewes,  A. F. Morrison,  K. Nanda,  
 T. S. Nguyen-Beck,  R. Olivares-Amaya,  J. A. Parkhill,  T. M. Perrine,  
 F. Plasser,  S. Prager,  A. Prociuk,  D. R. Rehn,  F. Rob,  M. Schneider,  
 N. Sergueev,  S. M. Sharada,  S. Sharma,  D. W. Small,  T. Stauch,  
 T. Stein,  Yu-Chuan Su,  A. J. W. Thom,  T. Tsuchimochi,  L. Vogt,  
 O. Vydrov,  M. A. Watson,  J. Wenzel,  M. de Wergifosse,  T. A. Wesolowski,  
 A. White,  J. Witte,  A. Yamada,  Jun Yang,  K. Yao,  S. Yeganeh,  
 S. R. Yost,  Zhi-Qiang You,  A. Zech,  Igor Ying Zhang,  Xing Zhang,  
 Yan Zhao,  Ying Zhu,  B. R. Brooks,  G. K. L. Chan,  C. J. Cramer,  
 M. S. Gordon,  W. J. Hehre,  A. Klamt,  M. W. Schmidt,  C. D. Sherrill,  
 D. G. Truhlar,  A. Aspuru-Guzik,  R. Baer,  A. T. Bell,  N. A. Besley,  
 Jeng-Da Chai,  A. Dreuw,  B. D. Dunietz,  T. R. Furlani,  Chao-Ping Hsu,  
 Yousung Jung,  Jing Kong,  D. S. Lambrecht,  WanZhen Liang,  C. Ochsenfeld,  
 V. A. Rassolov,  L. V. Slipchenko,  J. E. Subotnik,  T. Van Voorhis,  
 J. M. Herbert,  A. I. Krylov,  P. M. W. Gill,  M. Head-Gordon

 Contributors to earlier versions of Q-Chem not listed above: 
 R. D. Adamson,  B. Austin,  J. Baker,  G. J. O. Beran,  K. Brandhorst,  
 S. T. Brown,  E. F. C. Byrd,  A. K. Chakraborty,  C.-L. Cheng,  
 Siu Hung Chien,  D. M. Chipman,  D. L. Crittenden,  H. Dachsel,  
 R. A. DiStasio Jr.,  R. J. Doerksen,  A. D. Dutoi,  L. Fusti-Molnar,  
 W. A. Goddard III,  A. Golubeva-Zadorozhnaya,  S. R. Gwaltney,  G. Hawkins,  
 A. Heyden,  S. Hirata,  G. Kedziora,  F. J. Keil,  C. Kelley,  Jihan Kim,  
 R. A. King,  R. Z. Khaliullin,  P. P. Korambath,  W. Kurlancheek,  
 A. M. Lee,  M. S. Lee,  S. V. Levchenko,  Ching Yeh Lin,  D. Liotard,  
 R. C. Lochan,  I. Lotan,  P. E. Maslen,  N. Nair,  D. P. O'Neill,  
 D. Neuhauser,  E. Neuscamman,  C. M. Oana,  R. Olson,  B. Peters,  
 R. Peverati,  P. A. Pieniazek,  Y. M. Rhee,  J. Ritchie,  M. A. Rohrdanz,  
 E. Rosta,  N. J. Russ,  H. F. Schaefer III,  N. E. Schultz,  N. Shenvi,  
 A. C. Simmonett,  A. Sodt,  D. Stuck,  K. S. Thanthiriwatte,  V. Vanovschi,  
 Tao Wang,  A. Warshel,  C. F. Williams,  Q. Wu,  X. Xu,  W. Zhang

 Please cite Q-Chem as follows:
 Y. Shao et al., Mol. Phys. 113, 184-215 (2015)
 DOI: 10.1080/00268976.2014.952696

 Q-Chem 5.0.1 for Intel X86 EM64T Linux

 Parts of Q-Chem use Armadillo 5.200.1 (Boston Tea Smuggler).
 http://arma.sourceforge.net/

 Q-Chem begins on Tue Dec 28 12:39:20 2021  

Host: 
0

     Scratch files written to /lscratch/tkaczun/transient_absorption/Trajectories_10/4.0/TRAJ2_399054.Meister/qchem4749//
 
>>> fanoman::qchem_input_parser: Checking options in input section $fano_pump
 ------------------------------------------------------------
 
>>> fanoman::qchem_input_parser: Checking options in input section $fano_probe
 ------------------------------------------------------------

Checking the input file for inconsistencies... 	...done.

--------------------------------------------------------------
User input:
--------------------------------------------------------------
$comment
time = 4.0
$end

$molecule
0 1
c       -1.19219        0.76718       -0.03269
c       -1.16107       -0.70627        0.07078
n        0.00859       -1.51742       -0.05468
c        1.19515       -0.71597        0.00965
c        1.17547        0.71401        0.08884
n       -0.00345        1.45919       -0.05609
h       -2.22614        1.22368        0.09128
h       -2.08776       -1.19166        0.05913
h        1.98730       -1.19407       -0.18244
h        2.04836        1.26866       -0.05669
$end

$rem
	JOBTYPE         SP
	METHOD          FANO
	basis cc-pCVDZ
	cc_symmetry FALSE
    SYM_TOL		4
	mem_total 50000
	threads 1
	!QSYS wt=12:00:00
	!QSYS mem=60.0gb
	!QSYS vmem=60.0gb
	!ADC_PRINT       6
	!FANO_PRINT      3
$end

$fano_pump
	METHOD                   ADC(2)
	EE_SINGLETS              7 
	ADC_DAVIDSON_MAXITER     150
$end

$fano_probe
	METHOD                   CVS-ADC(2)-x
	CC_REST_OCC              6
	EE_SINGLETS              10
	ADC_DAVIDSON_MAXITER     150
$end
--------------------------------------------------------------
 ----------------------------------------------------------------
             Standard Nuclear Orientation (Angstroms)
    I     Atom           X                Y                Z
 ----------------------------------------------------------------
    1      C       1.4024168720    -0.1806514659    -0.0414905507
    2      C       0.7417950215     1.1365685616     0.0645262762
    3      N      -0.6638246654     1.3660567233    -0.0511349926
    4      C      -1.3902477939     0.1325442353     0.0205690191
    5      C      -0.7573134555    -1.1500307480     0.0973589555
    6      N       0.6263530047    -1.3164341521    -0.0573256834
    7      H       2.5330682269    -0.1482456418     0.0742280288
    8      H       1.3698030138     1.9731022530     0.0468946135
    9      H      -2.3123554402     0.2234485333    -0.1649941721
   10      H      -1.3081180404    -2.0262466416    -0.0426859391
 ----------------------------------------------------------------
 Molecular Point Group                 C1    NOp =  1
 Largest Abelian Subgroup              C1    NOp =  1
 Nuclear Repulsion Energy =   200.8264631441 hartrees
 There are       21 alpha and       21 beta electrons
 Requested basis set is cc-pCVDZ
 There are 60 shells and 128 basis functions

 Total QAlloc Memory Limit  50000 MB
 Mega-Array Size        61 MB
 MEM_STATIC part        62 MB

                       Distance Matrix (Angstroms)
             C (  1)   C (  2)   N (  3)   C (  4)   C (  5)   N (  6)
   C (  2)  1.477406
   N (  3)  2.581037  1.428919
   C (  4)  2.810857  2.357033  1.433313
   C (  5)  2.371373  2.734399  2.522199  1.432306
   N (  6)  1.375692  2.458739  2.976635  2.484408  1.402195
   H (  7)  1.137020  2.204428  3.539626  3.933717  3.439581  2.239985
   H (  8)  2.155813  1.046180  2.124560  3.317563  3.779038  3.374112
   H (  9)  3.738727  3.195982  2.009022  0.944976  2.091275  3.319464
   H ( 10)  3.279211  3.770549  3.452956  2.161278  1.044391  2.060637
             H (  7)   H (  8)   H (  9)
   H (  8)  2.419514
   H (  9)  4.865544  4.082215
   H ( 10)  4.277297  4.813946  2.466694
 
 A cutoff of  1.0D-11 yielded   1768 shell pairs
 There are      8070 function pairs (      8889 Cartesian)
 Smallest overlap matrix eigenvalue = 2.57E-03

 Scale SEOQF with 1.000000e-01/1.000000e-01/1.000000e+00

 Standard Electronic Orientation quadrupole field applied
 Nucleus-field energy     =     0.0000000052 hartrees
 Guess from superposition of atomic densities
 Warning:  Energy on first SCF cycle will be non-variational
 SAD guess density has 42.000000 electrons
 A restricted Hartree-Fock SCF calculation will be
 performed using Pulay DIIS extrapolation
 SCF converges when DIIS error is below 1.0E-08
 ---------------------------------------
  Cycle       Energy         DIIS Error
 ---------------------------------------
    1    -264.2220449496      6.13E-02
    2    -262.5532156698      5.07E-03
    3    -262.6181207477      2.07E-03
    4    -262.6263870029      9.46E-04
    5    -262.6285747560      2.10E-04
    6    -262.6287270315      7.49E-05
    7    -262.6287587554      3.47E-05
    8    -262.6287660693      1.79E-05
    9    -262.6287675097      4.96E-06
   10    -262.6287677204      2.51E-06
   11    -262.6287677745      1.55E-06
   12    -262.6287677994      6.18E-07
   13    -262.6287678029      2.31E-07
   14    -262.6287678032      6.68E-08
   15    -262.6287678036      1.97E-08
   16    -262.6287678035      8.93E-09 Convergence criterion met
 ---------------------------------------
 SCF time:  CPU 19.29 s  wall 19.31 s
 SCF   energy in the final basis set = -262.62876780
 Total energy in the final basis set = -262.62876780
--------------------------------------------------------------------------------
 >>> This is fanoman. <<<
--------------------------------------------------------------------------------
********************************************************************************
 FANOMAN: Performing probe state ADC calculation.
********************************************************************************
================================================================================
|                                                                              |
|                                 A D C  M A N                                 |
|                                                                              |
 ------------------------------------------------------------------------------ 
|                                                                              |
| Components:                                                                  |
|                                                                              |
| - libvmm - 1.3-trunk                                                         |
|   Authors:                                                                   |
|   Evgeny Epifanovsky, Ilya Kaliman                                           |
|                                                                              |
| - libtensor - 2.5-trunk                                                      |
|   Authors:                                                                   |
|   Evgeny Epifanovsky, Michael Wormit, Dmitry Zuev, Sam Manzer,               |
|   Ilya Kaliman                                                               |
|                                                                              |
| - libwfa - 1.1-beta                                                          |
|   Authors:                                                                   |
|   Felix Plasser, Stefanie Baeppler, Benjamin Thomitzni, Michael Wormit       |
|                                                                              |
| - libadc - 1.0-beta                                                          |
|   Authors:                                                                   |
|   Michael Wormit, Philipp H. P. Harbach, Caroline Krauter, Dirk Rehn,        |
|   Matthias Schneider, Jan Wenzel                                             |
|                                                                              |
| - adcman - 2.5-core_valence                                                  |
|   Authors:                                                                   |
|   Michael Wormit, Philipp H. P. Harbach, Caroline Krauter, Dirk Rehn,        |
|   Jan Wenzel, Jan-Michael Mewes, Daniel Lefrancois, Andreas Dreuw            |
|                                                                              |
| Authors of earlier versions of ADCMAN:                                       |
| Andreas Dreuw, Jan Hendrik Starcke, Dirk Rehn, Michael Wormit                |
|                                                                              |
================================================================================


--------------------------------------------------------------------------------
                                   HF Summary                                   
--------------------------------------------------------------------------------
  Energy:                                                 -262.6287678035 a.u.
  Dip. moment [a.u.]:                  [  -0.076445,    0.018881,   -0.045516]
  Total dipole [Debye]:                                         0.231173458967
  <r^2> [a.u.]:                        [ 204.268276,  204.999201,   28.250966]
  Total <r^2> [a.u.]:                                         437.518443396326
--------------------------------------------------------------------------------

--------------------------------------------------------------------------------
                                 MP(2) Summary                                  
--------------------------------------------------------------------------------
  MP energy contribution:                                   -1.0795651899 a.u.
  Total energy:                                           -263.7083329935 a.u.
  Dip. moment [a.u.]:                  [  -0.045688,    0.019777,   -0.024180]
  Total dipole [Debye]:                                         0.140676120029
  <r^2> [a.u.]:                        [ 204.483167,  204.561487,   27.699566]
  Total <r^2> [a.u.]:                                         436.744220828022
--------------------------------------------------------------------------------
  Starting Davidson ... 
--------------------------------------------------------------------------------
   It NVec Conv  Avg. Norm  Max. Norm  Conv. states           Remark
--------------------------------------------------------------------------------
        10    0  3.488e-01  1.147e+00 11.0688 n n n n n n n n Guess.
    1   20    0  1.950e-01  7.087e-01 10.6359 n n n n n n n n 
    2   30    0  7.079e-02  2.661e-01 10.5364 n n n n n n n n 
    3   40    0  1.945e-02  7.662e-02 10.5243 n n n n n n n n 
    4   50    0  1.276e-02  6.078e-02 10.5224 n n n n n n n n 
    5   20    0  6.490e-03  3.334e-02 10.5220 n n n n n n n n Subspace collapsed.
    6   30    0  9.266e-03  6.044e-02 10.5216 n n n n n n n n 
    7   40    0  5.632e-03  4.242e-02 10.5214 n n n n n n n n 
    8   50    0  4.007e-03  3.453e-02 10.5214 n n n n n n n n 
    9   20    0  2.400e-03  2.033e-02 10.5214 n n n n n n n n Subspace collapsed.
   10   30    0  2.258e-03  1.956e-02 10.5214 n n n n n n n n 
   11   40    0  1.353e-03  1.240e-02 10.5214 n n n n n n n n 
   12   50    0  1.303e-03  1.129e-02 10.5214 n n n n n n n n 
   13   20    0  9.040e-04  8.298e-03 10.5214 n n n n n n n n Subspace collapsed.
   14   30    0  1.075e-03  9.770e-03 10.5214 n n n n n n n n 
   15   40    0  9.107e-04  8.426e-03 10.5214 n n n n n n n n 
   16   50    0  9.071e-04  8.623e-03 10.5214 n n n n n n n n 
   17   20    0  5.659e-04  5.288e-03 10.5214 n n n n n n n n Subspace collapsed.
   18   30    0  5.310e-04  4.899e-03 10.5214 n n n n n n n n 
   19   40    0  4.100e-04  3.749e-03 10.5214 n n n n n n n n 
   20   50    0  5.303e-04  4.586e-03 10.5214 n n n n n n n n 
   21   20    0  3.466e-04  3.145e-03 10.5214 n n n n n n n n Subspace collapsed.
   22   30    0  3.860e-04  3.491e-03 10.5214 n n n n n n n n 
   23   40    0  3.714e-04  3.381e-03 10.5214 n n n n n n n n 
   24   50    0  4.438e-04  4.155e-03 10.5214 n n n n n n n n 
   25   20    3  2.892e-04  2.667e-03 10.5214 y y n y n n n n Subspace collapsed.
   26   30    6  2.680e-04  2.364e-03 10.5214 y y y y y n n y 
   27   40    7  2.336e-04  2.027e-03 10.5214 y y y y y y n y 
   28   50    8  3.463e-04  2.905e-03 10.5214 y y y y y y y y 
   29   20    8  2.128e-04  1.873e-03 10.5214 y y y y y y y y Subspace collapsed.
   30   30    8  2.283e-04  2.036e-03 10.5214 y y y y y y y y 
   31   40    8  2.333e-04  2.118e-03 10.5214 y y y y y y y y 
   32   50    8  3.106e-04  2.868e-03 10.5214 y y y y y y y y 
   33   20    8  1.984e-04  1.817e-03 10.5214 y y y y y y y y Subspace collapsed.
   34   30    8  1.888e-04  1.675e-03 10.5214 y y y y y y y y 
   35   40    8  1.749e-04  1.552e-03 10.5214 y y y y y y y y 
   36   50    8  2.894e-04  2.512e-03 10.5214 y y y y y y y y 
   37   20    8  1.703e-04  1.517e-03 10.5214 y y y y y y y y Subspace collapsed.
   38   30    8  1.738e-04  1.575e-03 10.5214 y y y y y y y y 
   39   40    8  1.803e-04  1.667e-03 10.5214 y y y y y y y y 
   40   50    8  2.555e-04  2.380e-03 10.5214 y y y y y y y y 
   41   20    8  1.591e-04  1.478e-03 10.5214 y y y y y y y y Subspace collapsed.
   42   30    8  1.600e-04  1.467e-03 10.5214 y y y y y y y y 
   43   40    8  1.486e-04  1.370e-03 10.5214 y y y y y y y y 
   44   50    8  2.688e-04  2.471e-03 10.5214 y y y y y y y y 
   45   20    8  1.506e-04  1.398e-03 10.5214 y y y y y y y y Subspace collapsed.
   46   30    8  1.520e-04  1.423e-03 10.5214 y y y y y y y y 
   47   40    8  1.603e-04  1.520e-03 10.5214 y y y y y y y y 
   48   50    8  2.343e-04  2.237e-03 10.5214 y y y y y y y y 
   49   20    8  1.451e-04  1.385e-03 10.5214 y y y y y y y y Subspace collapsed.
   50   30    8  1.483e-04  1.412e-03 10.5214 y y y y y y y y 
   51   40    8  1.390e-04  1.327e-03 10.5214 y y y y y y y y 
   52   50    8  2.677e-04  2.570e-03 10.5214 y y y y y y y y 
   53   19    8  1.448e-04  1.394e-03 10.5214 y y y y y y y y Subspace collapsed.
   54   27    8  1.460e-04  1.412e-03 10.5214 y y y y y y y y 
   55   34    8  1.546e-04  1.502e-03 10.5214 y y y y y y y y 
   56   40    8  2.085e-04  2.031e-03 10.5214 y y y y y y y y 
   57   46    8  1.206e-03  1.202e-02 10.5214 y y y y y y y y 
   58   49    8  5.988e-03  5.987e-02 10.5214 y y y y y y y y 
   59   50    8  4.766e-03  4.765e-02 10.5214 y y y y y y y y 
   60   12    8  2.427e-03  2.427e-02 10.5214 y y y y y y y y Subspace collapsed.
   61   14    8  1.883e-03  1.882e-02 10.5214 y y y y y y y y 
   62   16    8  9.431e-04  9.430e-03 10.5214 y y y y y y y y 
   63   18    8  4.694e-04  4.694e-03 10.5214 y y y y y y y y 
   64   20    8  5.258e-04  5.257e-03 10.5214 y y y y y y y y 
   65   22    8  3.513e-04  3.513e-03 10.5214 y y y y y y y y 
   66   24    8  2.259e-04  2.259e-03 10.5214 y y y y y y y y 
   67   26    8  2.727e-04  2.727e-03 10.5214 y y y y y y y y 
   68   28    8  1.803e-04  1.803e-03 10.5214 y y y y y y y y 
   69   30    8  1.098e-04  1.098e-03 10.5214 y y y y y y y y 
   70   32    8  7.688e-05  7.688e-04 10.5214 y y y y y y y y 
   71   34    8  7.535e-05  7.535e-04 10.5214 y y y y y y y y 
   72   36    8  8.763e-05  8.763e-04 10.5214 y y y y y y y y 
   73   38    8  6.529e-05  6.529e-04 10.5214 y y y y y y y y 
   74   40    8  6.325e-05  6.325e-04 10.5214 y y y y y y y y 
   75   42    8  6.670e-05  6.670e-04 10.5214 y y y y y y y y 
   76   44    8  5.862e-05  5.862e-04 10.5214 y y y y y y y y 
   77   46    8  6.073e-05  6.073e-04 10.5214 y y y y y y y y 
   78   48    8  5.403e-05  5.403e-04 10.5214 y y y y y y y y 
   79   50    8  5.108e-05  5.108e-04 10.5214 y y y y y y y y 
   80   12    8  2.937e-05  2.937e-04 10.5214 y y y y y y y y Subspace collapsed.
   81   14    8  3.629e-05  3.629e-04 10.5214 y y y y y y y y 
   82   16    8  3.267e-05  3.267e-04 10.5214 y y y y y y y y 
   83   18    8  3.249e-05  3.249e-04 10.5214 y y y y y y y y 
   84   20    8  2.790e-05  2.790e-04 10.5214 y y y y y y y y 
   85   22    9  1.845e-05  1.845e-04 10.5214 y y y y y y y y 
   86   24    9  2.028e-05  2.028e-04 10.5214 y y y y y y y y 
   87   26    9  1.682e-05  1.682e-04 10.5214 y y y y y y y y 
   88   28    9  2.218e-05  2.218e-04 10.5214 y y y y y y y y 
   89   30    9  2.629e-05  2.629e-04 10.5214 y y y y y y y y 
   90   32    9  2.829e-05  2.829e-04 10.5214 y y y y y y y y 
   91   34    9  3.194e-05  3.194e-04 10.5214 y y y y y y y y 
   92   36    9  2.334e-05  2.334e-04 10.5214 y y y y y y y y 
   93   38    9  2.118e-05  2.118e-04 10.5214 y y y y y y y y 
   94   40    9  1.521e-05  1.521e-04 10.5214 y y y y y y y y 
   95   42    9  1.144e-05  1.144e-04 10.5214 y y y y y y y y 
   96   44    9  1.098e-05  1.098e-04 10.5214 y y y y y y y y 
   97   46    9  8.245e-06  8.245e-05 10.5214 y y y y y y y y 
   98   48    9  9.434e-06  9.434e-05 10.5214 y y y y y y y y 
   99   50    9  6.014e-06  6.014e-05 10.5214 y y y y y y y y 
  100   12    9  3.478e-06  3.478e-05 10.5214 y y y y y y y y Subspace collapsed.
  101   14    9  3.593e-06  3.593e-05 10.5214 y y y y y y y y 
  102   16    9  3.329e-06  3.329e-05 10.5214 y y y y y y y y 
  103   18    9  2.901e-06  2.901e-05 10.5214 y y y y y y y y 
  104   20    9  2.672e-06  2.672e-05 10.5214 y y y y y y y y 
  105   22    9  2.187e-06  2.187e-05 10.5214 y y y y y y y y 
  106   24    9  2.337e-06  2.337e-05 10.5214 y y y y y y y y 
  107   26    9  1.862e-06  1.862e-05 10.5214 y y y y y y y y 
  108   28    9  1.498e-06  1.498e-05 10.5214 y y y y y y y y 
  109   30    9  1.131e-06  1.131e-05 10.5214 y y y y y y y y 
  110   32    9  8.400e-07  8.400e-06 10.5214 y y y y y y y y 
  111   34    9  8.922e-07  8.922e-06 10.5214 y y y y y y y y 
  112   36    9  8.785e-07  8.785e-06 10.5214 y y y y y y y y 
  113   38    9  1.002e-06  1.002e-05 10.5214 y y y y y y y y 
  114   40    9  8.682e-07  8.682e-06 10.5214 y y y y y y y y 
  115   42    9  7.233e-07  7.233e-06 10.5214 y y y y y y y y 
  116   44    9  5.716e-07  5.716e-06 10.5214 y y y y y y y y 
  117   46    9  4.207e-07  4.207e-06 10.5214 y y y y y y y y 
  118   48    9  3.954e-07  3.954e-06 10.5214 y y y y y y y y 
  119   50    9  3.987e-07  3.987e-06 10.5214 y y y y y y y y 
  120   12    9  2.305e-07  2.305e-06 10.5214 y y y y y y y y Subspace collapsed.
  121   14    9  2.580e-07  2.580e-06 10.5214 y y y y y y y y 
  122   16    9  2.742e-07  2.742e-06 10.5214 y y y y y y y y 
  123   18    9  2.806e-07  2.806e-06 10.5214 y y y y y y y y 
  124   20    9  2.667e-07  2.667e-06 10.5214 y y y y y y y y 
  125   22    9  2.323e-07  2.323e-06 10.5214 y y y y y y y y 
  126   24    9  2.338e-07  2.338e-06 10.5214 y y y y y y y y 
  127   26    9  2.092e-07  2.092e-06 10.5214 y y y y y y y y 
  128   28    9  2.073e-07  2.073e-06 10.5214 y y y y y y y y 
  129   30    9  2.200e-07  2.200e-06 10.5214 y y y y y y y y 
  130   32    9  2.179e-07  2.179e-06 10.5214 y y y y y y y y 
  131   34    9  2.077e-07  2.077e-06 10.5214 y y y y y y y y 
  132   36    9  1.734e-07  1.734e-06 10.5214 y y y y y y y y 
  133   38    9  1.484e-07  1.484e-06 10.5214 y y y y y y y y 
  134   40    9  1.302e-07  1.302e-06 10.5214 y y y y y y y y 
  135   42    9  1.227e-07  1.227e-06 10.5214 y y y y y y y y 
  136   44    9  1.242e-07  1.242e-06 10.5214 y y y y y y y y 
  137   46    9  1.216e-07  1.216e-06 10.5214 y y y y y y y y 
  138   48    9  1.157e-07  1.157e-06 10.5214 y y y y y y y y 
  139   50    9  1.182e-07  1.182e-06 10.5214 y y y y y y y y 
  140   12   10  7.056e-08  7.056e-07 10.5214 y y y y y y y y Converged.
--------------------------------------------------------------------------------
  Davidson Summary: 
 ------------------------------------------------------------
  State  0: excitation energy =  10.5214 a.u.   (converged)
  State  1: excitation energy =  10.5215 a.u.   (converged)
  State  2: excitation energy =  10.5302 a.u.   (converged)
  State  3: excitation energy =  10.5395 a.u.   (converged)
  State  4: excitation energy =  10.5509 a.u.   (converged)
  State  5: excitation energy =  10.5572 a.u.   (converged)
  State  6: excitation energy =  10.5634 a.u.   (converged)
  State  7: excitation energy =  10.5678 a.u.   (converged)
  State  8: excitation energy =  10.6916 a.u.   (converged)
  State  9: excitation energy =  10.7007 a.u.   (converged)
 ------------------------------------------------------------


--------------------------------------------------------------------------------
                             Excited State Summary
--------------------------------------------------------------------------------
--------------------------------------------------------------------------------

  Excited state 1 (singlet, A)                                     [converged]
  ----------------------------------------------------------------------------
  Term symbol:  2 (1) A                                     R^2 =  3.69128e-13

  Total energy:                                           -253.1869405820 a.u.
  Excitation energy:                                             286.301648 eV

  Osc. strength:                                                0.001385346883
  Trans. dip. moment [a.u.]:           [   0.002884,   -0.004385,    0.013037]
  <i|r^2|0> [a.u.]:                    [  -0.035306,   -0.005958,    0.011413]


  V1^2 = 0.7424, V2^2 = 0.2576

  Important amplitudes:
     core i     occ j       vir a       vir b          v   
    --------------------------------------------------------
     4 (A) A               22 (A) A                 -0.4085
     6 (A) A               22 (A) A                  0.2895
    --------------------------------------------------------
  ----------------------------------------------------------------------------


  Excited state 2 (singlet, A)                                     [converged]
  ----------------------------------------------------------------------------
  Term symbol:  3 (1) A                                     R^2 =  7.67807e-13

  Total energy:                                           -253.1868501942 a.u.
  Excitation energy:                                             286.304108 eV

  Osc. strength:                                                0.060761211935
  Trans. dip. moment [a.u.]:           [   0.008987,   -0.003511,   -0.092571]
  <i|r^2|0> [a.u.]:                    [  -0.032494,    0.001370,   -0.015093]


  V1^2 = 0.7433, V2^2 = 0.2567

  Important amplitudes:
     core i     occ j       vir a       vir b          v   
    --------------------------------------------------------
     6 (A) A               22 (A) A                  0.3755
     4 (A) A               22 (A) A                  0.3161
    --------------------------------------------------------
  ----------------------------------------------------------------------------


  Excited state 3 (singlet, A)                                     [converged]
  ----------------------------------------------------------------------------
  Term symbol:  4 (1) A                                     R^2 =  3.05323e-13

  Total energy:                                           -253.1781433774 a.u.
  Excitation energy:                                             286.541032 eV

  Osc. strength:                                                0.034260981487
  Trans. dip. moment [a.u.]:           [   0.000765,   -0.002468,    0.069812]
  <i|r^2|0> [a.u.]:                    [   0.000467,    0.013416,    0.027043]


  V1^2 = 0.7436, V2^2 = 0.2564

  Important amplitudes:
     core i     occ j       vir a       vir b          v   
    --------------------------------------------------------
     5 (A) A               22 (A) A                 -0.4941
     5 (A) A               23 (A) A                 -0.3060
    --------------------------------------------------------
  ----------------------------------------------------------------------------


  Excited state 4 (singlet, A)                                     [converged]
  ----------------------------------------------------------------------------
  Term symbol:  5 (1) A                                     R^2 =  5.75150e-13

  Total energy:                                           -253.1688374632 a.u.
  Excitation energy:                                             286.794259 eV

  Osc. strength:                                                0.030962287127
  Trans. dip. moment [a.u.]:           [  -0.002539,   -0.004368,    0.066190]
  <i|r^2|0> [a.u.]:                    [  -0.014152,    0.000975,   -0.011207]


  V1^2 = 0.7403, V2^2 = 0.2597

  Important amplitudes:
     core i     occ j       vir a       vir b          v   
    --------------------------------------------------------
     3 (A) A               22 (A) A                 -0.5024
     3 (A) A               23 (A) A                  0.2975
    --------------------------------------------------------
  ----------------------------------------------------------------------------


  Excited state 5 (singlet, A)                                     [converged]
  ----------------------------------------------------------------------------
  Term symbol:  6 (1) A                                     R^2 =  9.59691e-13

  Total energy:                                           -253.1574348976 a.u.
  Excitation energy:                                             287.104539 eV

  Osc. strength:                                                0.008247747514
  Trans. dip. moment [a.u.]:           [  -0.000179,   -0.001012,    0.034227]
  <i|r^2|0> [a.u.]:                    [   0.002596,    0.001630,    0.004150]


  V1^2 = 0.7112, V2^2 = 0.2888

  Important amplitudes:
     core i     occ j       vir a       vir b          v   
    --------------------------------------------------------
     6 (A) A               23 (A) A                  0.4701
     6 (A) A               22 (A) A                  0.3450
    --------------------------------------------------------
  ----------------------------------------------------------------------------


  Excited state 6 (singlet, A)                                     [converged]
  ----------------------------------------------------------------------------
  Term symbol:  7 (1) A                                     R^2 =  1.70734e-12

  Total energy:                                           -253.1511154252 a.u.
  Excitation energy:                                             287.276500 eV

  Osc. strength:                                                0.007327871833
  Trans. dip. moment [a.u.]:           [   0.003372,    0.000885,    0.032078]
  <i|r^2|0> [a.u.]:                    [  -0.008514,   -0.001753,    0.014573]


  V1^2 = 0.7157, V2^2 = 0.2843

  Important amplitudes:
     core i     occ j       vir a       vir b          v   
    --------------------------------------------------------
     5 (A) A               23 (A) A                 -0.4938
     5 (A) A               22 (A) A                  0.3172
    --------------------------------------------------------
  ----------------------------------------------------------------------------


  Excited state 7 (singlet, A)                                     [converged]
  ----------------------------------------------------------------------------
  Term symbol:  8 (1) A                                     R^2 =  7.12305e-13

  Total energy:                                           -253.1449393993 a.u.
  Excitation energy:                                             287.444558 eV

  Osc. strength:                                                0.008990715574
  Trans. dip. moment [a.u.]:           [   0.001474,   -0.000408,   -0.035698]
  <i|r^2|0> [a.u.]:                    [   0.003913,   -0.001174,   -0.009006]


  V1^2 = 0.7059, V2^2 = 0.2941

  Important amplitudes:
     core i     occ j       vir a       vir b          v   
    --------------------------------------------------------
     4 (A) A               23 (A) A                  0.5150
     4 (A) A               22 (A) A                 -0.2768
    --------------------------------------------------------
  ----------------------------------------------------------------------------


  Excited state 8 (singlet, A)                                     [converged]
  ----------------------------------------------------------------------------
  Term symbol:  9 (1) A                                     R^2 =  7.00059e-13

  Total energy:                                           -253.1405254862 a.u.
  Excitation energy:                                             287.564667 eV

  Osc. strength:                                                0.010667670702
  Trans. dip. moment [a.u.]:           [  -0.003555,    0.003098,    0.038626]
  <i|r^2|0> [a.u.]:                    [  -0.018804,   -0.001277,   -0.006799]


  V1^2 = 0.7137, V2^2 = 0.2863

  Important amplitudes:
     core i     occ j       vir a       vir b          v   
    --------------------------------------------------------
     3 (A) A               23 (A) A                  0.4995
     3 (A) A               22 (A) A                  0.3065
    --------------------------------------------------------
  ----------------------------------------------------------------------------


  Excited state 9 (singlet, A)                                     [converged]
  ----------------------------------------------------------------------------
  Term symbol:  10 (1) A                                    R^2 =  7.23508e-11

  Total energy:                                           -253.0167301031 a.u.
  Excitation energy:                                             290.933311 eV

  Osc. strength:                                                0.016761353930
  Trans. dip. moment [a.u.]:           [   0.047039,   -0.010576,    0.005203]
  <i|r^2|0> [a.u.]:                    [   0.256002,    0.007725,    0.012264]


  V1^2 = 0.7627, V2^2 = 0.2373

  Important amplitudes:
     core i     occ j       vir a       vir b          v   
    --------------------------------------------------------
     3 (A) A               24 (A) A                 -0.5493
     3 (A) A               26 (A) A                  0.1763
    --------------------------------------------------------
  ----------------------------------------------------------------------------


  Excited state 10 (singlet, A)                                     [converged]
  ----------------------------------------------------------------------------
  Term symbol:  11 (1) A                                    R^2 =  7.05624e-07

  Total energy:                                           -253.0076612955 a.u.
  Excitation energy:                                             291.180086 eV

  Osc. strength:                                                0.014526493978
  Trans. dip. moment [a.u.]:           [   0.024922,    0.037129,    0.006054]
  <i|r^2|0> [a.u.]:                    [   0.080574,    0.164320,    0.010280]


  V1^2 = 0.7448, V2^2 = 0.2552

  Important amplitudes:
     core i     occ j       vir a       vir b          v   
    --------------------------------------------------------
     4 (A) A               24 (A) A                 -0.5439
     4 (A) A               26 (A) A                 -0.1687
    --------------------------------------------------------
  ----------------------------------------------------------------------------


--------------------------------------------------------------------------------
  Time of ADC calculation:  CPU 6258.26 s  wall 6258.72 s
================================================================================
********************************************************************************
 FANOMAN: Finished probe state ADC calculation.
********************************************************************************
********************************************************************************
 FANOMAN: Performing pump state ADC calculation.
********************************************************************************
================================================================================
|                                                                              |
|                                 A D C  M A N                                 |
|                                                                              |
 ------------------------------------------------------------------------------ 
|                                                                              |
| Components:                                                                  |
|                                                                              |
| - libvmm - 1.3-trunk                                                         |
|   Authors:                                                                   |
|   Evgeny Epifanovsky, Ilya Kaliman                                           |
|                                                                              |
| - libtensor - 2.5-trunk                                                      |
|   Authors:                                                                   |
|   Evgeny Epifanovsky, Michael Wormit, Dmitry Zuev, Sam Manzer,               |
|   Ilya Kaliman                                                               |
|                                                                              |
| - libwfa - 1.1-beta                                                          |
|   Authors:                                                                   |
|   Felix Plasser, Stefanie Baeppler, Benjamin Thomitzni, Michael Wormit       |
|                                                                              |
| - libadc - 1.0-beta                                                          |
|   Authors:                                                                   |
|   Michael Wormit, Philipp H. P. Harbach, Caroline Krauter, Dirk Rehn,        |
|   Matthias Schneider, Jan Wenzel                                             |
|                                                                              |
| - adcman - 2.5-core_valence                                                  |
|   Authors:                                                                   |
|   Michael Wormit, Philipp H. P. Harbach, Caroline Krauter, Dirk Rehn,        |
|   Jan Wenzel, Jan-Michael Mewes, Daniel Lefrancois, Andreas Dreuw            |
|                                                                              |
| Authors of earlier versions of ADCMAN:                                       |
| Andreas Dreuw, Jan Hendrik Starcke, Dirk Rehn, Michael Wormit                |
|                                                                              |
================================================================================


--------------------------------------------------------------------------------
                                   HF Summary                                   
--------------------------------------------------------------------------------
  Energy:                                                 -262.6287678035 a.u.
  Dip. moment [a.u.]:                  [  -0.076445,    0.018881,   -0.045516]
  Total dipole [Debye]:                                         0.231173458967
  <r^2> [a.u.]:                        [ 204.268276,  204.999201,   28.250966]
  Total <r^2> [a.u.]:                                         437.518443396326
--------------------------------------------------------------------------------

--------------------------------------------------------------------------------
                                 MP(2) Summary                                  
--------------------------------------------------------------------------------
  MP energy contribution:                                   -1.0795651899 a.u.
  Total energy:                                           -263.7083329935 a.u.
  Dip. moment [a.u.]:                  [  -0.045688,    0.019777,   -0.024180]
  Total dipole [Debye]:                                         0.140676120029
  <r^2> [a.u.]:                        [ 204.483167,  204.561487,   27.699566]
  Total <r^2> [a.u.]:                                         436.744220828022
--------------------------------------------------------------------------------
  Starting Davidson ... 
--------------------------------------------------------------------------------
   It NVec Conv  Avg. Norm  Max. Norm  Conv. states           Remark
--------------------------------------------------------------------------------
         7    0  2.451e-01  6.973e-01  0.3386 n n n n n n n   Guess.
    1   14    0  1.004e-01  5.061e-01  0.1627 n n n n n n n   
    2   21    0  2.436e-02  9.585e-02  0.1480 n n n n n n n   
    3   28    0  1.531e-02  7.782e-02  0.1465 n n n n n n n   
    4   35    0  1.292e-02  6.422e-02  0.1462 n n n n n n n   
    5   14    0  7.307e-03  3.960e-02  0.1461 n n n n n n n   Subspace collapsed.
    6   21    0  7.697e-03  4.493e-02  0.1461 n n n n n n n   
    7   28    0  7.176e-03  4.499e-02  0.1461 n n n n n n n   
    8   35    0  7.220e-03  3.691e-02  0.1461 n n n n n n n   
    9   14    0  2.715e-03  1.442e-02  0.1461 n n n n n n n   Subspace collapsed.
   10   21    0  1.632e-03  9.297e-03  0.1461 n n n n n n n   
   11   28    0  1.136e-03  6.851e-03  0.1461 n n n n n n n   
   12   35    0  1.597e-03  1.043e-02  0.1461 n n n n n n n   
   13   14    0  8.797e-04  5.850e-03  0.1461 n n n n n n n   Subspace collapsed.
   14   21    0  1.166e-03  7.936e-03  0.1461 n n n n n n n   
   15   28    0  1.574e-03  1.093e-02  0.1461 n n n n n n n   
   16   35    0  3.517e-03  2.460e-02  0.1461 n n n n n n n   
   17   14    2  1.302e-03  9.104e-03  0.1461 y y n n n n n   Subspace collapsed.
   18   21    3  1.323e-03  9.259e-03  0.1461 y y y n n n n   
   19   28    3  9.694e-04  6.784e-03  0.1461 y y y n n n n   
   20   35    3  1.068e-03  7.471e-03  0.1461 y y y n n n n   
   21   14    3  8.280e-04  5.795e-03  0.1461 y y y n n n n   Subspace collapsed.
   22   21    3  1.044e-03  7.306e-03  0.1461 y y y n n n n   
   23   28    3  1.214e-03  8.496e-03  0.1461 y y y n n n n   
   24   35    3  2.329e-03  1.630e-02  0.1461 y y y n n n n   
   25   14    4  1.077e-03  7.538e-03  0.1461 y y y y n n n   Subspace collapsed.
   26   21    4  8.830e-04  6.181e-03  0.1461 y y y y n n n   
   27   28    4  7.471e-04  5.229e-03  0.1461 y y y y n n n   
   28   35    4  9.727e-04  6.809e-03  0.1461 y y y y n n n   
   29   14    4  6.222e-04  4.356e-03  0.1461 y y y y n n n   Subspace collapsed.
   30   21    4  7.830e-04  5.481e-03  0.1461 y y y y n n n   
   31   28    4  1.103e-03  7.724e-03  0.1461 y y y y n n n   
   32   35    4  1.411e-03  9.878e-03  0.1461 y y y y n n n   
   33   14    5  8.735e-04  6.114e-03  0.1461 y y y y y n n   Subspace collapsed.
   34   21    5  6.757e-04  4.730e-03  0.1461 y y y y y n n   
   35   28    6  5.536e-04  3.875e-03  0.1461 y y y y y y n   
   36   35    6  7.636e-04  5.345e-03  0.1461 y y y y y y n   
   37   14    6  4.429e-04  3.100e-03  0.1461 y y y y y y n   Subspace collapsed.
   38   21    6  5.795e-04  4.056e-03  0.1461 y y y y y y n   
   39   27    6  5.849e-04  4.094e-03  0.1461 y y y y y y n   
   40   28    6  5.857e-04  4.100e-03  0.1461 y y y y y y n   
   41   28    6  5.857e-04  4.100e-03  0.1461 y y y y y y n   
   42   35    6  1.109e-03  7.764e-03  0.1461 y y y y y y n   
   43   11    6  5.083e-04  3.558e-03  0.1461 y y y y y y n   Subspace collapsed.
   44   15    6  4.904e-04  3.433e-03  0.1461 y y y y y y n   
   45   19    6  3.937e-04  2.756e-03  0.1461 y y y y y y n   
   46   23    6  4.427e-04  3.099e-03  0.1461 y y y y y y n   
   47   27    6  7.322e-04  5.125e-03  0.1461 y y y y y y n   
   48   31    6  7.911e-04  5.538e-03  0.1461 y y y y y y n   
   49   35    6  6.895e-04  4.826e-03  0.1461 y y y y y y n   
   50   11    6  3.655e-04  2.559e-03  0.1461 y y y y y y n   Subspace collapsed.
   51   15    6  3.453e-04  2.417e-03  0.1461 y y y y y y n   
   52   15    6  3.453e-04  2.417e-03  0.1461 y y y y y y n   
   53   21    6  2.687e-04  1.881e-03  0.1461 y y y y y y n   
   54   24    6  2.287e-04  1.601e-03  0.1461 y y y y y y n   
   55   27    6  1.637e-04  1.146e-03  0.1461 y y y y y y n   
   56   30    6  1.726e-04  1.208e-03  0.1461 y y y y y y n   
   57   33    6  1.798e-04  1.259e-03  0.1461 y y y y y y n   
   58   35    6  1.516e-04  1.061e-03  0.1461 y y y y y y n   
   59   10    6  1.184e-04  8.285e-04  0.1461 y y y y y y n   Subspace collapsed.
   60   13    6  1.232e-04  8.627e-04  0.1461 y y y y y y n   
   61   16    6  1.178e-04  8.249e-04  0.1461 y y y y y y n   
   62   19    6  1.576e-04  1.104e-03  0.1461 y y y y y y n   
   63   22    6  1.498e-04  1.048e-03  0.1461 y y y y y y n   
   64   25    6  1.457e-04  1.020e-03  0.1461 y y y y y y n   
   65   28    6  1.429e-04  1.000e-03  0.1461 y y y y y y n   
   66   31    6  1.212e-04  8.483e-04  0.1461 y y y y y y n   
   67   33    6  1.217e-04  8.522e-04  0.1461 y y y y y y n   
   68   35    6  1.081e-04  7.566e-04  0.1461 y y y y y y n   
   69    9    6  5.679e-05  3.975e-04  0.1461 y y y y y y n   Subspace collapsed.
   70   11    6  4.514e-05  3.160e-04  0.1461 y y y y y y n   
   71   13    6  3.639e-05  2.547e-04  0.1461 y y y y y y n   
   72   15    6  3.473e-05  2.431e-04  0.1461 y y y y y y n   
   73   17    6  3.066e-05  2.146e-04  0.1461 y y y y y y n   
   74   19    6  2.236e-05  1.565e-04  0.1461 y y y y y y n   
   75   20    6  1.872e-05  1.310e-04  0.1461 y y y y y y n   
   76   21    6  1.580e-05  1.106e-04  0.1461 y y y y y y n   
   77   22    6  1.186e-05  8.304e-05  0.1461 y y y y y y n   
   78   23    6  1.033e-05  7.233e-05  0.1461 y y y y y y n   
   79   24    6  1.710e-05  1.197e-04  0.1461 y y y y y y n   
   80   25    6  1.718e-05  1.203e-04  0.1461 y y y y y y n   
   81   26    6  1.753e-05  1.227e-04  0.1461 y y y y y y n   
   82   27    6  1.554e-05  1.088e-04  0.1461 y y y y y y n   
   83   28    6  1.146e-05  8.019e-05  0.1461 y y y y y y n   
   84   29    6  9.243e-06  6.470e-05  0.1461 y y y y y y n   
   85   30    6  6.885e-06  4.819e-05  0.1461 y y y y y y n   
   86   31    6  5.712e-06  3.998e-05  0.1461 y y y y y y n   
   87   32    6  4.502e-06  3.151e-05  0.1461 y y y y y y n   
   88   33    6  3.282e-06  2.297e-05  0.1461 y y y y y y n   
   89   34    6  2.480e-06  1.736e-05  0.1461 y y y y y y n   
   90   35    6  2.046e-06  1.432e-05  0.1461 y y y y y y n   
   91    8    6  9.680e-07  6.776e-06  0.1461 y y y y y y n   Subspace collapsed.
   92    9    6  9.882e-07  6.917e-06  0.1461 y y y y y y n   
   93   10    6  8.588e-07  6.012e-06  0.1461 y y y y y y n   
   94   11    6  6.010e-07  4.207e-06  0.1461 y y y y y y n   
   95   12    6  5.185e-07  3.629e-06  0.1461 y y y y y y n   
   96   13    6  4.231e-07  2.962e-06  0.1461 y y y y y y n   
   97   14    6  3.198e-07  2.239e-06  0.1461 y y y y y y n   
   98   15    6  2.781e-07  1.947e-06  0.1461 y y y y y y n   
   99   16    6  1.930e-07  1.351e-06  0.1461 y y y y y y n   
  100   17    6  1.609e-07  1.126e-06  0.1461 y y y y y y n   
  101   18    7  1.301e-07  9.104e-07  0.1461 y y y y y y y   Converged.
--------------------------------------------------------------------------------
  Davidson Summary: 
 ------------------------------------------------------------
  State  0: excitation energy =   0.1461 a.u.   (converged)
  State  1: excitation energy =   0.1676 a.u.   (converged)
  State  2: excitation energy =   0.1701 a.u.   (converged)
  State  3: excitation energy =   0.2059 a.u.   (converged)
  State  4: excitation energy =   0.2272 a.u.   (converged)
  State  5: excitation energy =   0.2397 a.u.   (converged)
  State  6: excitation energy =   0.2683 a.u.   (converged)
 ------------------------------------------------------------


--------------------------------------------------------------------------------
                             Excited State Summary
--------------------------------------------------------------------------------
--------------------------------------------------------------------------------

  Excited state 1 (singlet, A)                                     [converged]
  ----------------------------------------------------------------------------
  Term symbol:  2 (1) A                                     R^2 =  4.72048e-14

  Total energy:                                           -263.5622823369 a.u.
  Excitation energy:                                               3.974240 eV

  Osc. strength:                                                0.009353300681
  Trans. dip. moment [a.u.]:           [   0.184900,    0.126612,   -0.214111]
  <i|r^2|0> [a.u.]:                    [  -0.215509,   -0.151548,    0.186852]


  V1^2 = 0.9048, V2^2 = 0.0952

  Important amplitudes:
      occ i      occ j       vir a       vir b          v   
    ---------------------------------------------------------
     19 (A) A               22 (A) A                  0.5787
     21 (A) A               22 (A) A                  0.2716
    ---------------------------------------------------------
  ----------------------------------------------------------------------------


  Excited state 2 (singlet, A)                                     [converged]
  ----------------------------------------------------------------------------
  Term symbol:  3 (1) A                                     R^2 =  1.05005e-13

  Total energy:                                           -263.5407618490 a.u.
  Excitation energy:                                               4.559843 eV

  Osc. strength:                                                0.001739188615
  Trans. dip. moment [a.u.]:           [   0.090309,   -0.085119,   -0.012930]
  <i|r^2|0> [a.u.]:                    [   0.030622,   -0.222190,    0.069043]


  V1^2 = 0.8886, V2^2 = 0.1114

  Important amplitudes:
      occ i      occ j       vir a       vir b          v   
    ---------------------------------------------------------
     19 (A) A               23 (A) A                 -0.6221
     20 (A) A               23 (A) A                 -0.1619
    ---------------------------------------------------------
  ----------------------------------------------------------------------------


  Excited state 3 (singlet, A)                                     [converged]
  ----------------------------------------------------------------------------
  Term symbol:  4 (1) A                                     R^2 =  2.05999e-13

  Total energy:                                           -263.5382596494 a.u.
  Excitation energy:                                               4.627931 eV

  Osc. strength:                                                0.041950398689
  Trans. dip. moment [a.u.]:           [  -0.554409,   -0.245216,   -0.049912]
  <i|r^2|0> [a.u.]:                    [  -0.073666,   -0.000343,    0.034741]


  V1^2 = 0.8916, V2^2 = 0.1084

  Important amplitudes:
      occ i      occ j       vir a       vir b          v   
    ---------------------------------------------------------
     21 (A) A               22 (A) A                 -0.5235
     20 (A) A               23 (A) A                 -0.2936
    ---------------------------------------------------------
  ----------------------------------------------------------------------------


  Excited state 4 (singlet, A)                                     [converged]
  ----------------------------------------------------------------------------
  Term symbol:  5 (1) A                                     R^2 =  2.68798e-13

  Total energy:                                           -263.5024753466 a.u.
  Excitation energy:                                               5.601671 eV

  Osc. strength:                                                0.001205082720
  Trans. dip. moment [a.u.]:           [   0.052526,   -0.064953,   -0.042463]
  <i|r^2|0> [a.u.]:                    [   0.030574,   -0.068826,    0.010005]


  V1^2 = 0.9007, V2^2 = 0.0993

  Important amplitudes:
      occ i      occ j       vir a       vir b          v   
    ---------------------------------------------------------
     18 (A) A               22 (A) A                 -0.6501
     20 (A) A               22 (A) A                 -0.1099
    ---------------------------------------------------------
  ----------------------------------------------------------------------------


  Excited state 5 (singlet, A)                                     [converged]
  ----------------------------------------------------------------------------
  Term symbol:  6 (1) A                                     R^2 =  8.22094e-14

  Total energy:                                           -263.4811024844 a.u.
  Excitation energy:                                               6.183257 eV

  Osc. strength:                                                0.017467673570
  Trans. dip. moment [a.u.]:           [   0.137894,    0.310294,   -0.003346]
  <i|r^2|0> [a.u.]:                    [  -0.064470,    0.055919,   -0.007789]


  V1^2 = 0.8720, V2^2 = 0.1280

  Important amplitudes:
      occ i      occ j       vir a       vir b          v   
    ---------------------------------------------------------
     18 (A) A               23 (A) A                 -0.6147
     20 (A) A               23 (A) A                 -0.1386
    ---------------------------------------------------------
  ----------------------------------------------------------------------------


  Excited state 6 (singlet, A)                                     [converged]
  ----------------------------------------------------------------------------
  Term symbol:  7 (1) A                                     R^2 =  2.83170e-13

  Total energy:                                           -263.4685856792 a.u.
  Excitation energy:                                               6.523856 eV

  Osc. strength:                                                0.082709978034
  Trans. dip. moment [a.u.]:           [   0.274905,   -0.663661,   -0.038249]
  <i|r^2|0> [a.u.]:                    [   0.091061,    0.115601,    0.029328]


  V1^2 = 0.9270, V2^2 = 0.0730

  Important amplitudes:
      occ i      occ j       vir a       vir b          v   
    ---------------------------------------------------------
     21 (A) A               23 (A) A                 -0.5768
     20 (A) A               22 (A) A                  0.2520
    ---------------------------------------------------------
  ----------------------------------------------------------------------------


  Excited state 7 (singlet, A)                                     [converged]
  ----------------------------------------------------------------------------
  Term symbol:  8 (1) A                                     R^2 =  9.10406e-07

  Total energy:                                           -263.4400797091 a.u.
  Excitation energy:                                               7.299543 eV

  Osc. strength:                                                0.421123499529
  Trans. dip. moment [a.u.]:           [  -1.469256,   -0.438645,    0.060723]
  <i|r^2|0> [a.u.]:                    [   0.113303,   -0.131448,    0.021031]


  V1^2 = 0.9030, V2^2 = 0.0970

  Important amplitudes:
      occ i      occ j       vir a       vir b          v   
    ---------------------------------------------------------
     20 (A) A               23 (A) A                  0.5303
     21 (A) A               22 (A) A                 -0.2762
    ---------------------------------------------------------
  ----------------------------------------------------------------------------


--------------------------------------------------------------------------------
  Time of ADC calculation:  CPU 2210.30 s  wall 2210.46 s
================================================================================
********************************************************************************
 FANOMAN: Finished pump state ADC calculation.
********************************************************************************
********************************************************************************
 FANOMAN: Performing computation of pump <-> probe transitions.
********************************************************************************
--------------------------------------------------------------------------------
 Computing couplings for irreps A -- A
--------------------------------------------------------------------------------
 ---------------------------------------------------------------------------------------------------------
 Couplings for probe state 2 (1) A
 ---------------------------------------------------------------------------------------------------------
      pumped
      state #       E_c - E_b         overlap      osc. strength        dx           dy           dz     
 ---------------------------------------------------------------------------------------------------------
        2 (1) A   1.03753418e+01 -2.64666347e-05  1.04683362e-03  [-8.3262e-03,  2.6622e-03, -8.6563e-03]
        3 (1) A   1.03538213e+01 -2.76740805e-05  2.31305937e-03  [ 7.6086e-03, -1.6605e-02, -1.2185e-03]
        4 (1) A   1.03513191e+01  3.56732197e-05  6.01485499e-03  [-3.3181e-03,  1.5634e-03,  2.9294e-02]
        5 (1) A   1.03155348e+01  1.34124345e-04  2.27559451e-03  [-1.6170e-02, -8.3303e-03, -1.4922e-04]
        6 (1) A   1.02941619e+01  4.24431327e-04  2.96222284e-04  [ 1.0414e-03,  2.5343e-03, -5.9713e-03]
        7 (1) A   1.02816451e+01  1.09556970e-04  4.74827707e-05  [-9.2929e-04,  1.4070e-04,  2.4584e-03]
        8 (1) A   1.02531391e+01  1.62894677e-04  3.36883547e-03  [-4.5043e-03, -9.7118e-04,  2.1717e-02]
 ---------------------------------------------------------------------------------------------------------
 ---------------------------------------------------------------------------------------------------------
 Couplings for probe state 3 (1) A
 ---------------------------------------------------------------------------------------------------------
      pumped
      state #       E_c - E_b         overlap      osc. strength        dx           dy           dz     
 ---------------------------------------------------------------------------------------------------------
        2 (1) A   1.03754321e+01  3.24127483e-05  7.07707877e-03  [ 1.2785e-02, -2.9274e-02,  1.6438e-03]
        3 (1) A   1.03539117e+01 -2.26445497e-05  2.19380197e-04  [-2.1990e-03, -5.1112e-03, -9.0669e-04]
        4 (1) A   1.03514095e+01  1.47099940e-05  4.28918231e-04  [ 1.0235e-03, -6.8817e-03,  3.7079e-03]
        5 (1) A   1.03156252e+01 -4.85498015e-04  2.13440902e-04  [-4.5943e-04, -4.3739e-03,  3.4197e-03]
        6 (1) A   1.02942523e+01  1.24105176e-04  7.74086150e-04  [ 7.6166e-03,  5.7489e-03,  4.6618e-03]
        7 (1) A   1.02817355e+01 -1.05930485e-04  4.11462821e-03  [ 5.3958e-03,  1.2450e-04, -2.3899e-02]
        8 (1) A   1.02532295e+01  3.39691719e-06  1.61548072e-04  [-1.4586e-03,  1.9474e-03,  4.2088e-03]
 ---------------------------------------------------------------------------------------------------------
 ---------------------------------------------------------------------------------------------------------
 Couplings for probe state 4 (1) A
 ---------------------------------------------------------------------------------------------------------
      pumped
      state #       E_c - E_b         overlap      osc. strength        dx           dy           dz     
 ---------------------------------------------------------------------------------------------------------
        2 (1) A   1.03841390e+01  8.57710731e-05  3.43266868e-03  [ 1.5515e-02, -1.4343e-02,  7.0278e-03]
        3 (1) A   1.03626185e+01 -1.05174089e-04  1.37146886e-03  [-9.1418e-03,  1.0612e-02,  1.5252e-03]
        4 (1) A   1.03601163e+01  4.97984344e-06  3.85235204e-03  [ 2.4006e-03, -1.9094e-03, -2.3417e-02]
        5 (1) A   1.03243320e+01 -3.03510821e-04  8.21273254e-04  [-8.4636e-03, -6.6239e-03,  1.9524e-03]
        6 (1) A   1.03029591e+01 -2.42924711e-04  7.12958755e-04  [-4.0359e-03, -3.1738e-03,  8.7998e-03]
        7 (1) A   1.02904423e+01 -1.94342046e-04  2.13404748e-03  [-2.7225e-03, -4.5818e-04, -1.7420e-02]
        8 (1) A   1.02619363e+01 -1.44136864e-04  2.15054279e-03  [ 5.1581e-05, -1.4772e-03, -1.7668e-02]
 ---------------------------------------------------------------------------------------------------------
 ---------------------------------------------------------------------------------------------------------
 Couplings for probe state 5 (1) A
 ---------------------------------------------------------------------------------------------------------
      pumped
      state #       E_c - E_b         overlap      osc. strength        dx           dy           dz     
 ---------------------------------------------------------------------------------------------------------
        2 (1) A   1.03934449e+01  8.73737674e-05  4.01745697e-03  [ 3.1538e-03, -2.1176e-02, -1.1020e-02]
        3 (1) A   1.03719244e+01  1.03944937e-04  1.36012445e-03  [ 2.4319e-03, -1.3224e-02, -3.9880e-03]
        4 (1) A   1.03694222e+01  1.22497690e-05  4.23598357e-03  [ 2.3941e-05, -1.0517e-02,  2.2409e-02]
        5 (1) A   1.03336379e+01 -2.70868235e-04  6.43825762e-04  [ 9.5030e-03,  8.4043e-04,  1.5628e-03]
        6 (1) A   1.03122650e+01  3.09518626e-04  2.63977042e-04  [-6.0492e-03, -1.3175e-03,  2.6315e-04]
        7 (1) A   1.02997482e+01  9.54550583e-05  1.67899424e-03  [ 3.5018e-04,  3.3070e-03, -1.5279e-02]
        8 (1) A   1.02712422e+01 -8.94700965e-06  1.78632635e-03  [-2.6734e-03, -4.7370e-03,  1.5208e-02]
 ---------------------------------------------------------------------------------------------------------
 ---------------------------------------------------------------------------------------------------------
 Couplings for probe state 6 (1) A
 ---------------------------------------------------------------------------------------------------------
      pumped
      state #       E_c - E_b         overlap      osc. strength        dx           dy           dz     
 ---------------------------------------------------------------------------------------------------------
        2 (1) A   1.04048474e+01 -3.62578837e-05  2.39721377e-03  [ 3.0338e-03, -1.6286e-02, -8.4349e-03]
        3 (1) A   1.03833270e+01 -1.54772975e-05  3.22384287e-03  [-4.1620e-03,  2.0872e-02, -3.5749e-03]
        4 (1) A   1.03808248e+01  1.25807625e-05  7.97208750e-03  [-4.1293e-03, -4.6485e-04,  3.3685e-02]
        5 (1) A   1.03450404e+01 -1.12818076e-04  6.69494530e-04  [-7.6620e-03, -6.0077e-03,  1.5087e-03]
        6 (1) A   1.03236676e+01 -2.57464223e-04  6.69046794e-04  [-7.0512e-03, -5.5487e-03, -4.0869e-03]
        7 (1) A   1.03111508e+01 -6.04635415e-05  2.53781767e-03  [-6.8976e-03, -3.8644e-05,  1.7933e-02]
        8 (1) A   1.02826448e+01 -4.46697990e-05  4.72721903e-04  [ 1.5969e-03, -1.9171e-03, -7.9205e-03]
 ---------------------------------------------------------------------------------------------------------
 ---------------------------------------------------------------------------------------------------------
 Couplings for probe state 7 (1) A
 ---------------------------------------------------------------------------------------------------------
      pumped
      state #       E_c - E_b         overlap      osc. strength        dx           dy           dz     
 ---------------------------------------------------------------------------------------------------------
        2 (1) A   1.04111669e+01 -6.39582356e-05  2.12835165e-03  [-1.0647e-02,  9.7988e-03, -9.8630e-03]
        3 (1) A   1.03896464e+01 -6.94700233e-05  3.29782155e-03  [-1.4771e-02,  1.5481e-02, -4.2759e-03]
        4 (1) A   1.03871442e+01  6.83656597e-06  7.02016169e-03  [-3.3765e-03,  2.4812e-03,  3.1563e-02]
        5 (1) A   1.03513599e+01  7.00311198e-05  2.96876655e-04  [ 4.5763e-03,  4.1566e-03,  2.1910e-03]
        6 (1) A   1.03299871e+01 -2.49988847e-04  7.46197148e-04  [-6.6417e-03, -7.2330e-03,  3.4532e-03]
        7 (1) A   1.03174703e+01 -8.92197611e-05  2.97357608e-03  [-1.9163e-03, -4.3633e-04, -2.0699e-02]
        8 (1) A   1.02889643e+01 -4.64617105e-05  8.63855871e-05  [ 3.0730e-03, -1.1058e-03,  1.3884e-03]
 ---------------------------------------------------------------------------------------------------------
 ---------------------------------------------------------------------------------------------------------
 Couplings for probe state 8 (1) A
 ---------------------------------------------------------------------------------------------------------
      pumped
      state #       E_c - E_b         overlap      osc. strength        dx           dy           dz     
 ---------------------------------------------------------------------------------------------------------
        2 (1) A   1.04173429e+01  2.93875569e-05  1.96832977e-03  [-7.8237e-03,  9.8882e-03, -1.1155e-02]
        3 (1) A   1.03958224e+01 -4.80899940e-05  4.63313814e-03  [-1.4232e-02,  2.1010e-02, -4.9540e-03]
        4 (1) A   1.03933203e+01  5.87145228e-06  7.14131226e-03  [-4.2633e-03,  4.1086e-03,  3.1553e-02]
        5 (1) A   1.03575359e+01  4.86693577e-05  3.19745631e-04  [-6.2224e-03, -1.1829e-03,  2.4878e-03]
        6 (1) A   1.03361631e+01 -3.03939939e-04  9.95177962e-04  [ 1.0245e-02,  4.4705e-03,  4.4138e-03]
        7 (1) A   1.03236463e+01 -1.18718674e-04  2.81792707e-03  [ 1.9250e-03, -9.5250e-04, -2.0120e-02]
        8 (1) A   1.02951403e+01 -5.72076054e-05  3.58914728e-04  [ 4.8163e-03,  3.5572e-03, -4.0550e-03]
 ---------------------------------------------------------------------------------------------------------
 ---------------------------------------------------------------------------------------------------------
 Couplings for probe state 9 (1) A
 ---------------------------------------------------------------------------------------------------------
      pumped
      state #       E_c - E_b         overlap      osc. strength        dx           dy           dz     
 ---------------------------------------------------------------------------------------------------------
        2 (1) A   1.04217569e+01 -5.45419693e-05  2.30365874e-03  [-2.4388e-03,  1.4396e-02,  1.0879e-02]
        3 (1) A   1.04002364e+01  6.83294406e-05  3.48493576e-03  [ 3.7466e-03, -2.1961e-02, -2.5060e-03]
        4 (1) A   1.03977342e+01  8.29163735e-06  5.76997364e-03  [ 7.2095e-04,  5.6210e-03, -2.8289e-02]
        5 (1) A   1.03619499e+01  8.69222525e-05  2.84937707e-04  [-6.3132e-03, -1.1638e-03, -1.9203e-04]
        6 (1) A   1.03405770e+01  2.47229255e-04  5.82532725e-04  [-7.6501e-03, -1.2821e-03,  4.9330e-03]
        7 (1) A   1.03280602e+01  1.42126068e-04  3.24822583e-03  [-3.8792e-03,  5.0004e-03, -2.0778e-02]
        8 (1) A   1.02995542e+01 -3.65044027e-06  8.37306173e-04  [-3.1981e-03, -3.9301e-03,  9.8117e-03]
 ---------------------------------------------------------------------------------------------------------
 ---------------------------------------------------------------------------------------------------------
 Couplings for probe state 10 (1) A
 ---------------------------------------------------------------------------------------------------------
      pumped
      state #       E_c - E_b         overlap      osc. strength        dx           dy           dz     
 ---------------------------------------------------------------------------------------------------------
        2 (1) A   1.05455522e+01  2.10418322e-05  7.85271917e-06  [ 7.1651e-04, -4.5836e-04,  6.2730e-04]
        3 (1) A   1.05240317e+01  3.97332347e-05  1.67398415e-05  [ 1.3560e-03, -4.0365e-04,  6.1993e-04]
        4 (1) A   1.05215295e+01 -3.46217698e-05  1.48421675e-05  [-1.4221e-03,  3.0239e-04,  4.7897e-05]
        5 (1) A   1.04857452e+01 -2.13120875e-05  4.14183199e-06  [-3.8608e-04,  1.9128e-05, -6.6563e-04]
        6 (1) A   1.04643724e+01 -4.91737051e-06  7.60340493e-06  [-9.4070e-04, -3.8556e-04,  2.3734e-04]
        7 (1) A   1.04518556e+01  1.34238737e-04  2.30109806e-04  [ 5.6891e-03,  3.2269e-05,  8.1104e-04]
        8 (1) A   1.04233496e+01 -9.94321797e-05  1.12309647e-04  [-3.4166e-03,  1.0415e-03, -1.8450e-03]
 ---------------------------------------------------------------------------------------------------------
 ---------------------------------------------------------------------------------------------------------
 Couplings for probe state 11 (1) A
 ---------------------------------------------------------------------------------------------------------
      pumped
      state #       E_c - E_b         overlap      osc. strength        dx           dy           dz     
 ---------------------------------------------------------------------------------------------------------
        2 (1) A   1.05546210e+01  9.56871532e-06  5.94050798e-06  [ 8.2591e-04,  3.6240e-05,  4.0101e-04]
        3 (1) A   1.05331006e+01 -5.05530415e-06  7.08731830e-06  [-8.1701e-04,  2.8357e-04, -5.1125e-04]
        4 (1) A   1.05305984e+01 -2.92973099e-05  2.89525394e-05  [-1.0976e-03, -1.7005e-03,  1.6576e-04]
        5 (1) A   1.04948141e+01  5.60835192e-07  1.09155876e-05  [-7.7584e-06,  9.2665e-04,  8.3749e-04]
        6 (1) A   1.04734412e+01  2.46861987e-05  4.35743587e-05  [ 1.6136e-03,  1.7662e-03,  7.1934e-04]
        7 (1) A   1.04609244e+01 -5.20263733e-05  2.34667850e-04  [-2.9173e-03, -4.7492e-03, -1.6073e-03]
        8 (1) A   1.04324184e+01 -3.82033423e-05  9.92082378e-05  [-1.4429e-03, -2.2827e-03, -2.6404e-03]
 ---------------------------------------------------------------------------------------------------------
********************************************************************************
 Pump-Probe Results
********************************************************************************
 ----------------------------------------------------------------
 Transitions from pumped state 2 (1) A
 ----------------------------------------------------------------
   probed state    E_pr - E_pu    osc. strength       overlap   
 ----------------------------------------------------------------
        2 (1) A   2.82327408e+02  1.04683362e-03 -2.64666347e-05
        3 (1) A   2.82329867e+02  7.07707877e-03  3.24127483e-05
        4 (1) A   2.82566792e+02  3.43266868e-03  8.57710731e-05
        5 (1) A   2.82820019e+02  4.01745697e-03  8.73737674e-05
        6 (1) A   2.83130298e+02  2.39721377e-03 -3.62578837e-05
        7 (1) A   2.83302260e+02  2.12835165e-03 -6.39582356e-05
        8 (1) A   2.83470318e+02  1.96832977e-03  2.93875569e-05
        9 (1) A   2.83590427e+02  2.30365874e-03 -5.45419693e-05
       10 (1) A   2.86959070e+02  7.85271917e-06  2.10418322e-05
       11 (1) A   2.87205845e+02  5.94050798e-06  9.56871532e-06
 ----------------------------------------------------------------
 ----------------------------------------------------------------
 Transitions from pumped state 3 (1) A
 ----------------------------------------------------------------
   probed state    E_pr - E_pu    osc. strength       overlap   
 ----------------------------------------------------------------
        2 (1) A   2.81741805e+02  2.31305937e-03 -2.76740805e-05
        3 (1) A   2.81744265e+02  2.19380197e-04 -2.26445497e-05
        4 (1) A   2.81981189e+02  1.37146886e-03 -1.05174089e-04
        5 (1) A   2.82234416e+02  1.36012445e-03  1.03944937e-04
        6 (1) A   2.82544696e+02  3.22384287e-03 -1.54772975e-05
        7 (1) A   2.82716657e+02  3.29782155e-03 -6.94700233e-05
        8 (1) A   2.82884716e+02  4.63313814e-03 -4.80899940e-05
        9 (1) A   2.83004824e+02  3.48493576e-03  6.83294406e-05
       10 (1) A   2.86373468e+02  1.67398415e-05  3.97332347e-05
       11 (1) A   2.86620243e+02  7.08731830e-06 -5.05530415e-06
 ----------------------------------------------------------------
 ----------------------------------------------------------------
 Transitions from pumped state 4 (1) A
 ----------------------------------------------------------------
   probed state    E_pr - E_pu    osc. strength       overlap   
 ----------------------------------------------------------------
        2 (1) A   2.81673717e+02  6.01485499e-03  3.56732197e-05
        3 (1) A   2.81676177e+02  4.28918231e-04  1.47099940e-05
        4 (1) A   2.81913101e+02  3.85235204e-03  4.97984344e-06
        5 (1) A   2.82166328e+02  4.23598357e-03  1.22497690e-05
        6 (1) A   2.82476608e+02  7.97208750e-03  1.25807625e-05
        7 (1) A   2.82648569e+02  7.02016169e-03  6.83656597e-06
        8 (1) A   2.82816627e+02  7.14131226e-03  5.87145228e-06
        9 (1) A   2.82936736e+02  5.76997364e-03  8.29163735e-06
       10 (1) A   2.86305380e+02  1.48421675e-05 -3.46217698e-05
       11 (1) A   2.86552155e+02  2.89525394e-05 -2.92973099e-05
 ----------------------------------------------------------------
 ----------------------------------------------------------------
 Transitions from pumped state 5 (1) A
 ----------------------------------------------------------------
   probed state    E_pr - E_pu    osc. strength       overlap   
 ----------------------------------------------------------------
        2 (1) A   2.80699977e+02  2.27559451e-03  1.34124345e-04
        3 (1) A   2.80702436e+02  2.13440902e-04 -4.85498015e-04
        4 (1) A   2.80939361e+02  8.21273254e-04 -3.03510821e-04
        5 (1) A   2.81192588e+02  6.43825762e-04 -2.70868235e-04
        6 (1) A   2.81502867e+02  6.69494530e-04 -1.12818076e-04
        7 (1) A   2.81674829e+02  2.96876655e-04  7.00311198e-05
        8 (1) A   2.81842887e+02  3.19745631e-04  4.86693577e-05
        9 (1) A   2.81962996e+02  2.84937707e-04  8.69222525e-05
       10 (1) A   2.85331639e+02  4.14183199e-06 -2.13120875e-05
       11 (1) A   2.85578414e+02  1.09155876e-05  5.60835192e-07
 ----------------------------------------------------------------
 ----------------------------------------------------------------
 Transitions from pumped state 6 (1) A
 ----------------------------------------------------------------
   probed state    E_pr - E_pu    osc. strength       overlap   
 ----------------------------------------------------------------
        2 (1) A   2.80118391e+02  2.96222284e-04  4.24431327e-04
        3 (1) A   2.80120851e+02  7.74086150e-04  1.24105176e-04
        4 (1) A   2.80357776e+02  7.12958755e-04 -2.42924711e-04
        5 (1) A   2.80611002e+02  2.63977042e-04  3.09518626e-04
        6 (1) A   2.80921282e+02  6.69046794e-04 -2.57464223e-04
        7 (1) A   2.81093244e+02  7.46197148e-04 -2.49988847e-04
        8 (1) A   2.81261302e+02  9.95177962e-04 -3.03939939e-04
        9 (1) A   2.81381410e+02  5.82532725e-04  2.47229255e-04
       10 (1) A   2.84750054e+02  7.60340493e-06 -4.91737051e-06
       11 (1) A   2.84996829e+02  4.35743587e-05  2.46861987e-05
 ----------------------------------------------------------------
 ----------------------------------------------------------------
 Transitions from pumped state 7 (1) A
 ----------------------------------------------------------------
   probed state    E_pr - E_pu    osc. strength       overlap   
 ----------------------------------------------------------------
        2 (1) A   2.79777792e+02  4.74827707e-05  1.09556970e-04
        3 (1) A   2.79780251e+02  4.11462821e-03 -1.05930485e-04
        4 (1) A   2.80017176e+02  2.13404748e-03 -1.94342046e-04
        5 (1) A   2.80270403e+02  1.67899424e-03  9.54550583e-05
        6 (1) A   2.80580682e+02  2.53781767e-03 -6.04635415e-05
        7 (1) A   2.80752644e+02  2.97357608e-03 -8.92197611e-05
        8 (1) A   2.80920702e+02  2.81792707e-03 -1.18718674e-04
        9 (1) A   2.81040811e+02  3.24822583e-03  1.42126068e-04
       10 (1) A   2.84409455e+02  2.30109806e-04  1.34238737e-04
       11 (1) A   2.84656229e+02  2.34667850e-04 -5.20263733e-05
 ----------------------------------------------------------------
 ----------------------------------------------------------------
 Transitions from pumped state 8 (1) A
 ----------------------------------------------------------------
   probed state    E_pr - E_pu    osc. strength       overlap   
 ----------------------------------------------------------------
        2 (1) A   2.79002105e+02  3.36883547e-03  1.62894677e-04
        3 (1) A   2.79004565e+02  1.61548072e-04  3.39691719e-06
        4 (1) A   2.79241489e+02  2.15054279e-03 -1.44136864e-04
        5 (1) A   2.79494716e+02  1.78632635e-03 -8.94700965e-06
        6 (1) A   2.79804995e+02  4.72721903e-04 -4.46697990e-05
        7 (1) A   2.79976957e+02  8.63855871e-05 -4.64617105e-05
        8 (1) A   2.80145015e+02  3.58914728e-04 -5.72076054e-05
        9 (1) A   2.80265124e+02  8.37306173e-04 -3.65044027e-06
       10 (1) A   2.83633768e+02  1.12309647e-04 -9.94321797e-05
       11 (1) A   2.83880542e+02  9.92082378e-05 -3.82033423e-05
 ----------------------------------------------------------------
********************************************************************************
 End of Pump-Probe Results
********************************************************************************
********************************************************************************
 FANOMAN: Finished computation of pump <-> probe transitions.
********************************************************************************
--------------------------------------------------------------------------------
 >>> fanoman shutting down. <<<
--------------------------------------------------------------------------------
 
 --------------------------------------------------------------
 
                    Orbital Energies (a.u.)
 --------------------------------------------------------------
 
 Alpha MOs
 -- Occupied --
-15.619 -15.611 -11.313 -11.306 -11.299 -11.294  -1.259  -1.182
 -1.040  -0.899  -0.878  -0.720  -0.696  -0.667  -0.610  -0.552
 -0.538  -0.499  -0.418  -0.410  -0.347
 -- Virtual --
  0.071   0.100   0.191   0.209   0.241   0.247   0.283   0.304
  0.409   0.426   0.441   0.533   0.571   0.638   0.652   0.663
  0.674   0.703   0.714   0.736   0.745   0.762   0.793   0.834
  0.858   0.896   0.917   0.951   0.994   1.024   1.053   1.071
  1.076   1.102   1.120   1.146   1.160   1.208   1.231   1.291
  1.344   1.372   1.383   1.408   1.533   1.556   1.581   1.697
  1.739   1.759   1.766   1.791   1.808   1.844   1.871   1.904
  1.917   1.966   2.001   2.024   2.064   2.118   2.162   2.206
  2.277   2.296   2.368   2.420   2.484   2.488   2.560   2.596
  2.684   2.707   2.784   2.850   2.936   2.977   3.014   3.054
  3.167   3.346   3.594  19.580  19.692  19.948  20.086  22.471
 22.533  22.558  22.619  22.757  22.910  23.354  23.416  23.473
 23.674  23.732  24.093  26.574  26.807  30.485  30.541  30.679
 30.783  30.942  31.200
 --------------------------------------------------------------
 
          Ground-State Mulliken Net Atomic Charges

     Atom                 Charge (a.u.)
  ----------------------------------------
      1 C                     0.074451
      2 C                     0.120024
      3 N                    -0.345243
      4 C                     0.210438
      5 C                     0.106718
      6 N                    -0.324018
      7 H                     0.091110
      8 H                     0.041271
      9 H                    -0.022370
     10 H                     0.047619
  ----------------------------------------
  Sum of atomic charges =    -0.000000

 -----------------------------------------------------------------
                    Cartesian Multipole Moments
 -----------------------------------------------------------------
    Charge (ESU x 10^10)
                 0.0000
    Dipole Moment (Debye)
         X       0.1943      Y      -0.0480      Z       0.1157
       Tot       0.2312
    Quadrupole Moments (Debye-Ang)
        XX     -28.2383     XY       6.2988     YY     -39.1642
        XZ       0.7065     YZ       0.1449     ZZ     -37.1686
    Octopole Moments (Debye-Ang^2)
       XXX       1.9296    XXY       0.5482    XYY      -0.2342
       YYY      -1.2756    XXZ      -0.4555    XYZ      -0.3057
       YYZ       0.3784    XZZ      -0.4743    YZZ      -0.0169
       ZZZ      -0.6393
    Hexadecapole Moments (Debye-Ang^3)
      XXXX    -232.9841   XXXY       5.2546   XXYY     -91.1726
      XYYY      30.8488   YYYY    -286.0184   XXXZ       5.3252
      XXYZ       0.2252   XYYZ       0.9474   YYYZ       1.0439
      XXZZ     -56.5904   XYZZ      -0.4743   YYZZ     -54.4876
      XZZZ       1.1739   YZZZ       0.2598   ZZZZ     -40.0268
 -----------------------------------------------------------------
Archival summary:
1\1\Knecht17\SP\HF\BasisUnspecified\244\tkaczun\TueDec2815:15:312021TueDec2815:15:312021\0\\#,HF,BasisUnspecified,\\0,1\N\C,1,1.37569\H,2,1.13702,1,125.85\C,1,1.40219,2,117.221,3,165.798,0\H,4,1.04439,1,113.958,2,172.662,0\C,4,1.43231,1,122.44,2,11.7483,0\H,6,0.944976,4,121.862,1,159.071,0\N,6,1.43331,4,123.323,1,-8.08583,0\C,8,1.42892,6,110.872,4,-4.28107,0\H,9,1.04618,8,117.433,6,-178.651,0\\HF=-262.628768\\@

 Total job time:  9370.31s(wall), 9369.60s(cpu) 
 Tue Dec 28 15:15:31 2021

        *************************************************************
        *                                                           *
        *  Thank you very much for using Q-Chem.  Have a nice day.  *
        *                                                           *
        *************************************************************


